 Q-Chem 5.0, Q-Chem, Inc., Pleasanton, CA (2017)
 Q-Chem 5.0.2 for Intel X86 EM64T Linux

User input:
--------------------------------------------------------------
$molecule
0 2
C        1.0918431871    0.2799420557    0.5084593209
C        0.9055643285   -0.9931703433   -0.3326926237
C       -0.4025144818   -1.0756662791   -0.6258838152
C       -1.0814473266    0.1439411724    0.0311892415
C       -0.4421382406    1.3816098886   -0.6301732424
N        0.8049740084    1.4811062327   -0.3790758163
H        2.0381411306    0.3877494274    1.0364811344
H        1.7037857060   -1.6606120475   -0.6384633482
H       -0.9124601364   -1.8187001688   -1.2293897903
H       -2.1680275795    0.1208834678    0.1152858240
H       -0.9691858428    2.0914680144   -1.2654672980
C       -0.2113110014    0.1769689155    1.2911729625
H       -0.3572237511   -0.5155203361    2.1185574514
$end

$rem
method                b3lyp
basis                 6-31g(d)
unrestricted          true
symmetry              off
sym_ignore            true
incdft                false
incfock               0
scf_convergence       8
thresh                14
jobtype               opt
scf_guess             read
scf_algorithm         diis
max_scf_cycles        100
geom_opt_tol_gradient 600
geom_opt_tol_displacement 2400
geom_opt_tol_energy   200
geom_opt_max_cycles   100
$end

--------------------------------------------------------------

    2    -286.8516735490      6.23E-10 Convergence criterion met
 Total energy in the final basis set = -286.85167355

             Standard Nuclear Orientation (Angstroms)
    I     Atom           X                Y                Z
 ----------------------------------------------------------------
    1      C       1.0918529168     0.2796843179     0.5086047475
    2      C       0.9054522993    -0.9938542557    -0.3316566753
    3      C      -0.4024066119    -1.0753815450    -0.6261439428
    4      C      -1.0813901061     0.1437167587     0.0315318006
    5      C      -0.4423259441     1.3812501678    -0.6299481297
    6      N       0.8051513291     1.4798235025    -0.3804770582
    7      H       2.0381036504     0.3880201859     1.0366048957
    8      H       1.7038790579    -1.6604210854    -0.6386590180
    9      H      -0.9120810206    -1.8171092799    -1.2313299028
   10      H      -2.1679707688     0.1207341685     0.1155954376
   11      H      -0.9697181317     2.0909344066    -1.2651416813
   12      C      -0.2110438421     0.1771553158     1.2915253707
   13      H      -0.3575028279    -0.5145526580     2.1194941565
 ----------------------------------------------------------------

   10    -286.8516738339      6.98E-09 Convergence criterion met
 Total energy in the final basis set = -286.85167383
 Final energy is   -286.851673833946
 **  OPTIMIZATION CONVERGED  **

                    Orbital Energies (a.u.)
 --------------------------------------------------------------

 Alpha MOs
 -- Occupied --
-14.322 -10.224 -10.220 -10.210 -10.204 -10.201 -10.198  -0.953
 -0.821  -0.726  -0.705  -0.579  -0.573  -0.531  -0.512  -0.472
 -0.418  -0.410  -0.381  -0.373  -0.348  -0.294  -0.271  -0.258
 -0.196

 Beta MOs
 -- Occupied --
-14.321 -10.224 -10.221 -10.210 -10.200 -10.197 -10.190  -0.949
 -0.815  -0.725  -0.690  -0.577  -0.561  -0.527  -0.509  -0.463
 -0.414  -0.406  -0.379  -0.369  -0.342  -0.287  -0.261  -0.255

          Ground-State Mulliken Net Atomic Charges

     Atom                 Charge (a.u.)    Spin (a.u.)
  --------------------------------------------------------
      1 C                    -0.094100      -0.044908
      2 C                    -0.088350       0.040329
      3 C                    -0.095993       0.079787
      4 C                    -0.246036      -0.043744
      5 C                     0.092340      -0.008852
      6 N                    -0.325259       0.021716
      7 H                     0.139783       0.003042
      8 H                     0.146151       0.000875
      9 H                     0.145650       0.000298
     10 H                     0.133910       0.002871
     11 H                     0.149682      -0.000175
     12 C                    -0.096546       0.975177
     13 H                     0.138767      -0.026417
  --------------------------------------------------------
  Sum of atomic charges =    -0.000000

                    Cartesian Multipole Moments
 -----------------------------------------------------------------
    Charge (ESU x 10^10)
                 0.0000
    Dipole Moment (Debye)
         X      -1.3870      Y      -1.9298      Z      -0.0071
       Tot       2.3765
    Quadrupole Moments (Debye-Ang)
        XX     -38.2739     XY      -3.6874     YY     -42.8235
        XZ       2.4719     YZ       0.2945     ZZ     -40.3883

 Total job time:  19.30s(wall), 49.87s(cpu)
        *  Thank you very much for using Q-Chem.  Have a nice day.  *
