 Q-Chem 5.0, Q-Chem, Inc., Pleasanton, CA (2017)
 Q-Chem 5.0.2 for Intel X86 EM64T Linux

User input:
--------------------------------------------------------------
$molecule
0 2
C        1.9550676156    0.1927511669   -0.1342143524
C        1.0112677044   -0.7635189424   -0.1506493285
C       -0.2837335802   -0.1068214979   -0.5495998634
C       -1.4593266966   -0.2720668775    0.3972687432
C        0.1901430512    1.3297838852   -0.6896206311
N        1.4478652376    1.4867130491   -0.4662748554
H        3.0100881771    0.0947807031    0.0942580900
H        1.1277699937   -1.8179010152    0.0638178521
H       -0.5958440926   -0.4559383199   -1.5506994954
H       -2.3901558252    0.2091705270    0.0690180838
H       -0.4549434834    2.1627133590   -0.9619288473
C       -1.4303535273   -0.9149156917    1.5415988095
H       -2.1278445744   -1.1447503455    2.3370257949
$end

$rem
method                b3lyp
basis                 6-31g(d)
unrestricted          true
symmetry              off
sym_ignore            true
incdft                false
incfock               0
scf_convergence       8
thresh                14
jobtype               opt
scf_guess             read
scf_algorithm         diis
max_scf_cycles        100
geom_opt_tol_gradient 600
geom_opt_tol_displacement 2400
geom_opt_tol_energy   200
geom_opt_max_cycles   100
$end

--------------------------------------------------------------

    2    -286.8443305168      2.75E-09 Convergence criterion met
 Total energy in the final basis set = -286.84433052

             Standard Nuclear Orientation (Angstroms)
    I     Atom           X                Y                Z
 ----------------------------------------------------------------
    1      C       1.9550875318     0.1926868471    -0.1340663045
    2      C       1.0114775892    -0.7638604318    -0.1514074081
    3      C      -0.2834204738    -0.1068387817    -0.5492643580
    4      C      -1.4590547928    -0.2710665640     0.3975690545
    5      C       0.1901517138     1.3296256010    -0.6898692160
    6      N       1.4480854256     1.4866631016    -0.4680895456
    7      H       3.0098782545     0.0952026882     0.0956382617
    8      H       1.1268506686    -1.8178623115     0.0653907484
    9      H      -0.5967871758    -0.4551145450    -1.5503819190
   10      H      -2.3898874109     0.2101540380     0.0692654800
   11      H      -0.4552169260     2.1623486794    -0.9620994596
   12      C      -1.4301041502    -0.9162773332     1.5406648196
   13      H      -2.1270602542    -1.1456609879     2.3366498464
 ----------------------------------------------------------------

   11    -286.8443323571      5.93E-09 Convergence criterion met
 Total energy in the final basis set = -286.84433236
 Final energy is   -286.844332357076
 **  OPTIMIZATION CONVERGED  **

                    Orbital Energies (a.u.)
 --------------------------------------------------------------

 Alpha MOs
 -- Occupied --
-14.329 -10.228 -10.216 -10.213 -10.210 -10.209 -10.190  -0.948
 -0.809  -0.745  -0.713  -0.598  -0.555  -0.544  -0.502  -0.479
 -0.442  -0.414  -0.393  -0.368  -0.344  -0.290  -0.257  -0.245
 -0.233

 Beta MOs
 -- Occupied --
-14.329 -10.228 -10.215 -10.212 -10.209 -10.198 -10.190  -0.948
 -0.803  -0.741  -0.703  -0.590  -0.554  -0.534  -0.500  -0.469
 -0.436  -0.412  -0.393  -0.364  -0.342  -0.285  -0.253  -0.238

          Ground-State Mulliken Net Atomic Charges

     Atom                 Charge (a.u.)    Spin (a.u.)
  --------------------------------------------------------
      1 C                     0.007741       0.001201
      2 C                    -0.122991       0.002718
      3 C                    -0.228330       0.042979
      4 C                    -0.119123      -0.167607
      5 C                     0.085562      -0.006773
      6 N                    -0.370635       0.006811
      7 H                     0.141648      -0.000005
      8 H                     0.147043       0.000259
      9 H                     0.180646      -0.004682
     10 H                     0.149367       0.078432
     11 H                     0.145847      -0.000025
     12 C                    -0.181902       1.042906
     13 H                     0.165127       0.003787
  --------------------------------------------------------
  Sum of atomic charges =     0.000000

                    Cartesian Multipole Moments
 -----------------------------------------------------------------
    Charge (ESU x 10^10)
                 0.0000
    Dipole Moment (Debye)
         X      -2.0099      Y      -1.4223      Z      -0.2676
       Tot       2.4767
    Quadrupole Moments (Debye-Ang)
        XX     -38.2994     XY      -4.5826     YY     -43.4355
        XZ       0.5789     YZ      -0.5286     ZZ     -39.9151

 Total job time:  16.03s(wall), 49.89s(cpu)
        *  Thank you very much for using Q-Chem.  Have a nice day.  *
