 Q-Chem 5.0, Q-Chem, Inc., Pleasanton, CA (2017)
 Q-Chem 5.0.2 for Intel X86 EM64T Linux

User input:
--------------------------------------------------------------
$molecule
0 2
C        1.4253529299    0.5311732073   -0.4078002194
C        0.9021956275   -0.8015160835   -0.0668909537
C       -0.2550690206   -1.4137481628   -0.7193851965
C       -1.2181975323    0.5829656363    0.4609594769
C       -0.6058218922    1.6100181139   -0.1762382494
N        0.7358883810    1.6124135846   -0.5553904813
H        2.5107357296    0.6211790677   -0.4832368255
H        1.6322749412   -1.4836270331    0.3726348150
H       -0.3886100891   -2.4388616603   -1.0401366684
H       -2.1808235095    0.7372417242    0.9416225748
H       -1.1087301068    2.5645366319   -0.2989828689
C       -0.6242417811   -0.7606624538    0.5331103329
H       -0.8701287579   -1.3758613350    1.4000691733
$end

$rem
method                b3lyp
basis                 6-31+g(d,p)
unrestricted          true
symmetry              off
sym_ignore            true
incdft                false
incfock               0
scf_convergence       8
thresh                14
jobtype               opt
scf_guess             read
scf_algorithm         diis
max_scf_cycles        100
geom_opt_max_cycles   300
$end

--------------------------------------------------------------

   18    -286.8764712317      5.23E-09 Convergence criterion met
 Total energy in the final basis set = -286.87647123
   12    -286.8765526988      7.68E-09 Convergence criterion met
 Total energy in the final basis set = -286.87655270
   12    -286.8765980630      9.32E-09 Convergence criterion met
 Total energy in the final basis set = -286.87659806
   11    -286.8766057350      5.62E-09 Convergence criterion met
 Total energy in the final basis set = -286.87660573
   11    -286.8766092840      3.60E-09 Convergence criterion met
 Total energy in the final basis set = -286.87660928

             Standard Nuclear Orientation (Angstroms)
    I     Atom           X                Y                Z
 ----------------------------------------------------------------
    1      C       1.4188433584     0.5303306907    -0.4209140876
    2      C       0.9001017437    -0.7997106828    -0.0579190663
    3      C      -0.2405122741    -1.4293875076    -0.7252098762
    4      C      -1.2239935680     0.5861295707     0.4515914517
    5      C      -0.6019437586     1.6216954499    -0.1599524210
    6      N       0.7345224612     1.6154283373    -0.5605645511
    7      H       2.5020961203     0.6109667085    -0.5315814606
    8      H       1.6312654214    -1.4675455223     0.4009247524
    9      H      -0.3497695565    -2.4692166670    -1.0073683295
   10      H      -2.1834592249     0.7408660152     0.9382435954
   11      H      -1.0910377559     2.5871937229    -0.2475498059
   12      C      -0.6378036384    -0.7618775815     0.5106731102
   13      H      -0.9034844087    -1.3796212967     1.3699615983
 ----------------------------------------------------------------

    9    -286.8766096886      7.03E-09 Convergence criterion met
 Total energy in the final basis set = -286.87660969
 Final energy is   -286.876609688560
 **  OPTIMIZATION CONVERGED  **

                    Orbital Energies (a.u.)
 --------------------------------------------------------------

 Alpha MOs
 -- Occupied --
-14.337 -10.240 -10.235 -10.232 -10.230 -10.217 -10.206  -0.946
 -0.878  -0.776  -0.677  -0.651  -0.579  -0.540  -0.500  -0.492
 -0.460  -0.435  -0.387  -0.382  -0.370  -0.309  -0.267  -0.240
 -0.229

 Beta MOs
 -- Occupied --
-14.337 -10.240 -10.235 -10.232 -10.217 -10.216 -10.205  -0.944
 -0.869  -0.774  -0.670  -0.649  -0.565  -0.535  -0.497  -0.483
 -0.456  -0.432  -0.385  -0.380  -0.362  -0.300  -0.262  -0.236

          Ground-State Mulliken Net Atomic Charges

     Atom                 Charge (a.u.)    Spin (a.u.)
  --------------------------------------------------------
      1 C                    -0.054339      -0.048020
      2 C                    -0.016470       0.028873
      3 C                    -0.252774       0.991503
      4 C                     0.088665       0.045889
      5 C                    -0.253478      -0.035284
      6 N                    -0.182101       0.016197
      7 H                     0.128429       0.005048
      8 H                     0.144241       0.022580
      9 H                     0.148691      -0.021928
     10 H                     0.132732       0.003133
     11 H                     0.125055       0.000835
     12 C                    -0.153034      -0.026121
     13 H                     0.144384       0.017295
  --------------------------------------------------------
  Sum of atomic charges =     0.000000

                    Cartesian Multipole Moments
 -----------------------------------------------------------------
    Charge (ESU x 10^10)
                 0.0000
    Dipole Moment (Debye)
         X      -0.4248      Y      -2.7774      Z       1.3816
       Tot       3.1310
    Quadrupole Moments (Debye-Ang)
        XX     -38.8426     XY      -3.6424     YY     -42.1746
        XZ      -0.8832     YZ       0.8156     ZZ     -43.8743

 Total job time:  124.40s(wall), 463.53s(cpu)
        *  Thank you very much for using Q-Chem.  Have a nice day.  *
