 Q-Chem 5.0, Q-Chem, Inc., Pleasanton, CA (2017)
 Q-Chem 5.0.2 for Intel X86 EM64T Linux

User input:
--------------------------------------------------------------
$molecule
0 2
C        1.4217175692    0.5385068562   -0.4110204459
C        0.9053291338   -0.7958663669   -0.0607994231
C       -0.2325418220   -1.4227366804   -0.7351194446
C       -1.2226209048    0.5802911285    0.4577505492
C       -0.6017145919    1.6229390964   -0.1427970940
N        0.7353091957    1.6234531680   -0.5415782554
H        2.5048482481    0.6221081366   -0.5205545165
H        1.6371526905   -1.4659946678    0.3937649041
H       -0.3384815835   -2.4600717530   -1.0274331212
H       -2.1832273324    0.7287192666    0.9441438226
H       -1.0926312584    2.5883237400   -0.2212197322
C       -0.6338317476   -0.7670611864    0.5055614633
H       -0.8993075966   -1.3926107380    1.3593012936
$end

$rem
method                b3lyp
basis                 6-31+g(d,p)
unrestricted          true
symmetry              off
sym_ignore            true
incdft                false
incfock               0
scf_convergence       8
thresh                14
jobtype               sp
scf_guess             read
scf_algorithm         diis
max_scf_cycles        100
scf_final_print       1
$end

--------------------------------------------------------------

             Standard Nuclear Orientation (Angstroms)
    I     Atom           X                Y                Z
 ----------------------------------------------------------------
    1      C       1.4217175692     0.5385068562    -0.4110204459
    2      C       0.9053291338    -0.7958663669    -0.0607994231
    3      C      -0.2325418220    -1.4227366804    -0.7351194446
    4      C      -1.2226209048     0.5802911285     0.4577505492
    5      C      -0.6017145919     1.6229390964    -0.1427970940
    6      N       0.7353091957     1.6234531680    -0.5415782554
    7      H       2.5048482481     0.6221081366    -0.5205545165
    8      H       1.6371526905    -1.4659946678     0.3937649041
    9      H      -0.3384815835    -2.4600717530    -1.0274331212
   10      H      -2.1832273324     0.7287192666     0.9441438226
   11      H      -1.0926312584     2.5883237400    -0.2212197322
   12      C      -0.6338317476    -0.7670611864     0.5055614633
   13      H      -0.8993075966    -1.3926107380     1.3593012936
 ----------------------------------------------------------------

    2    -286.8766133120      1.59E-09 Convergence criterion met
 Total energy in the final basis set = -286.87661331

                    Orbital Energies (a.u.)
 --------------------------------------------------------------

 Alpha MOs
 -- Occupied --
-14.337 -10.240 -10.235 -10.232 -10.230 -10.217 -10.206  -0.946
 -0.878  -0.776  -0.677  -0.651  -0.579  -0.540  -0.500  -0.492
 -0.460  -0.435  -0.387  -0.382  -0.370  -0.309  -0.267  -0.240
 -0.229

 Beta MOs
 -- Occupied --
-14.337 -10.240 -10.235 -10.232 -10.217 -10.216 -10.205  -0.944
 -0.869  -0.774  -0.670  -0.649  -0.565  -0.535  -0.497  -0.483
 -0.456  -0.432  -0.385  -0.380  -0.362  -0.300  -0.262  -0.236

          Ground-State Mulliken Net Atomic Charges

     Atom                 Charge (a.u.)    Spin (a.u.)
  --------------------------------------------------------
      1 C                    -0.054142      -0.047983
      2 C                    -0.016715       0.028825
      3 C                    -0.252852       0.991605
      4 C                     0.088526       0.045868
      5 C                    -0.253363      -0.035254
      6 N                    -0.182148       0.016189
      7 H                     0.128443       0.005045
      8 H                     0.144261       0.022618
      9 H                     0.148687      -0.022003
     10 H                     0.132718       0.003143
     11 H                     0.125046       0.000833
     12 C                    -0.152848      -0.026234
     13 H                     0.144387       0.017347
  --------------------------------------------------------
  Sum of atomic charges =    -0.000000

                    Cartesian Multipole Moments
 -----------------------------------------------------------------
    Charge (ESU x 10^10)
                -0.0000
    Dipole Moment (Debye)
         X      -0.4204      Y      -2.7908      Z       1.3553
       Tot       3.1309
    Quadrupole Moments (Debye-Ang)
        XX     -38.8288     XY      -3.6389     YY     -42.2128
        XZ      -0.9108     YZ       0.8194     ZZ     -43.8522

 Total job time:  3.30s(wall), 11.58s(cpu)
        *  Thank you very much for using Q-Chem.  Have a nice day.  *
