 Q-Chem 5.0, Q-Chem, Inc., Pleasanton, CA (2017)
 Q-Chem 5.0.2 for Intel X86 EM64T Linux

User input:
--------------------------------------------------------------
$molecule
0 2
C        1.5477472760    0.5892260649   -0.1661174802
C        0.8970607177   -0.7388591012    0.0332109042
C       -0.4088273245   -0.6568615315   -0.6897097495
C       -1.0276594355    0.6283354330    0.8764888279
C       -0.6040297190    0.9025335126   -0.5731474427
N        0.7467183084    1.5141514125   -0.5487879860
H        2.6021396743    0.7865712322    0.0202106136
H        1.4608073711   -1.6652998343    0.0714411153
H       -0.8136480880   -1.3545099541   -1.4163496942
H       -2.0106423964    0.8497093975    1.2775321774
H       -1.2895489893    1.4314556195   -1.2331056451
C       -0.4375930341   -0.7233015731    0.8502750883
H       -0.6625243603   -1.5631506781    1.4980592704
$end

$rem
method                b3lyp
basis                 6-31+g(d,p)
unrestricted          true
symmetry              off
sym_ignore            true
incdft                false
incfock               0
scf_convergence       8
thresh                14
jobtype               sp
scf_guess             read
scf_algorithm         diis
max_scf_cycles        100
scf_final_print       1
$end

--------------------------------------------------------------

             Standard Nuclear Orientation (Angstroms)
    I     Atom           X                Y                Z
 ----------------------------------------------------------------
    1      C       1.5477472760     0.5892260649    -0.1661174802
    2      C       0.8970607177    -0.7388591012     0.0332109042
    3      C      -0.4088273245    -0.6568615315    -0.6897097495
    4      C      -1.0276594355     0.6283354330     0.8764888279
    5      C      -0.6040297190     0.9025335126    -0.5731474427
    6      N       0.7467183084     1.5141514125    -0.5487879860
    7      H       2.6021396743     0.7865712322     0.0202106136
    8      H       1.4608073711    -1.6652998343     0.0714411153
    9      H      -0.8136480880    -1.3545099541    -1.4163496942
   10      H      -2.0106423964     0.8497093975     1.2775321774
   11      H      -1.2895489893     1.4314556195    -1.2331056451
   12      C      -0.4375930341    -0.7233015731     0.8502750883
   13      H      -0.6625243603    -1.5631506781     1.4980592704
 ----------------------------------------------------------------

    2    -286.8575835626      1.78E-09 Convergence criterion met
 Total energy in the final basis set = -286.85758356

                    Orbital Energies (a.u.)
 --------------------------------------------------------------

 Alpha MOs
 -- Occupied --
-14.332 -10.231 -10.230 -10.226 -10.224 -10.222 -10.206  -0.976
 -0.870  -0.757  -0.667  -0.617  -0.584  -0.549  -0.519  -0.473
 -0.438  -0.422  -0.399  -0.375  -0.339  -0.326  -0.277  -0.268
 -0.184

 Beta MOs
 -- Occupied --
-14.332 -10.231 -10.231 -10.226 -10.222 -10.221 -10.193  -0.972
 -0.865  -0.747  -0.656  -0.612  -0.581  -0.547  -0.509  -0.470
 -0.433  -0.416  -0.396  -0.371  -0.327  -0.314  -0.274  -0.266

          Ground-State Mulliken Net Atomic Charges

     Atom                 Charge (a.u.)    Spin (a.u.)
  --------------------------------------------------------
      1 C                    -0.060250      -0.001256
      2 C                    -0.084250       0.004940
      3 C                    -0.102040       0.145215
      4 C                    -0.050887       1.025373
      5 C                    -0.151396      -0.103616
      6 N                    -0.194017       0.023842
      7 H                     0.132714       0.004213
      8 H                     0.138983       0.002210
      9 H                     0.135286       0.008636
     10 H                     0.135297      -0.038684
     11 H                     0.134297       0.005142
     12 C                    -0.174931      -0.075947
     13 H                     0.141195      -0.000069
  --------------------------------------------------------
  Sum of atomic charges =    -0.000000

                    Cartesian Multipole Moments
 -----------------------------------------------------------------
    Charge (ESU x 10^10)
                -0.0000
    Dipole Moment (Debye)
         X      -0.6790      Y      -3.1360      Z       0.0583
       Tot       3.2092
    Quadrupole Moments (Debye-Ang)
        XX     -37.4045     XY      -2.8875     YY     -45.3772
        XZ       1.2466     YZ       0.2385     ZZ     -42.4123

 Total job time:  3.27s(wall), 11.55s(cpu)
        *  Thank you very much for using Q-Chem.  Have a nice day.  *
