 Q-Chem 5.0, Q-Chem, Inc., Pleasanton, CA (2017)
 Q-Chem 5.0.2 for Intel X86 EM64T Linux

User input:
--------------------------------------------------------------
$molecule
0 2
C        1.5442260122    0.5858170099   -0.1648227007
C        0.8933928188   -0.7433281533    0.0274524181
C       -0.4116294351   -0.6568399607   -0.6947308194
C       -1.0190626743    0.6293213101    0.8813309350
C       -0.6034654431    0.9023794952   -0.5700925198
N        0.7480965927    1.5150152936   -0.5418434138
H        2.5985034105    0.7806894678    0.0288947196
H        1.4558011547   -1.6713749082    0.0632118031
H       -0.8124854917   -1.3478788806   -1.4307367237
H       -1.9839980831    0.8769962878    1.3090357089
H       -1.2898439338    1.4327961462   -1.2297459986
C       -0.4462241013   -0.7297048709    0.8396281663
H       -0.6733108267   -1.5738882364    1.4824184246
****
C        1.5144180968    0.5168101934   -0.5443539347
C        1.2757922600   -0.8263114019   -0.3174248251
C        0.0610287322   -1.4491084524    0.1422301056
C       -1.3867784738    0.5856105649    0.3804640961
C       -0.5363022646    1.6032401734   -0.0071493069
N        0.7522051645    1.6277081371   -0.4239556734
H        2.5227384233    0.7493717137   -0.8943313379
H        2.1133109588   -1.4918781803   -0.5121086974
H        0.0956743757   -2.5311996436    0.2521189280
H       -2.3889162677    0.8947105461    0.6681093407
H       -0.9747389999    2.6032147179    0.0219548549
C       -1.1123049839   -0.8275045081    0.4498644610
H       -1.9361270218   -1.4546638602    0.7845819890
$end

$rem
method                b3lyp
basis                 6-31g(d)
unrestricted          true
symmetry              off
sym_ignore            true
incdft                false
incfock               0
scf_convergence       8
thresh                14
jobtype               fsm
scf_guess             core
scf_guess_mix         5
scf_algorithm         diis
max_scf_cycles        100
fsm_nnode             21
fsm_ngrad             6
fsm_mode              2
fsm_opt_mode          2
$end

--------------------------------------------------------------

   20    -286.8365051346      9.83E-09 Convergence criterion met
 Total energy in the final basis set = -286.83650513
   23    -286.9243179236      3.29E-09 Convergence criterion met
 Total energy in the final basis set = -286.92431792
   22    -286.8325056956      5.91E-09 Convergence criterion met
 Total energy in the final basis set = -286.83250570
   21    -286.8332059147      5.99E-09 Convergence criterion met
 Total energy in the final basis set = -286.83320591
   23    -286.9233308567      6.57E-09 Convergence criterion met
 Total energy in the final basis set = -286.92333086
   23    -286.9216492527      5.80E-09 Convergence criterion met
 Total energy in the final basis set = -286.92164925
   23    -286.9221459605      6.15E-09 Convergence criterion met
 Total energy in the final basis set = -286.92214596
   23    -286.9228516193      5.86E-09 Convergence criterion met
 Total energy in the final basis set = -286.79043299
   22    -286.7910378878      2.70E-09 Convergence criterion met
 Total energy in the final basis set = -286.79103789
   22    -286.7904405829      2.72E-09 Convergence criterion met
 Total energy in the final basis set = -286.79044058
   22    -286.7910314507      2.70E-09 Convergence criterion met
 Total energy in the final basis set = -286.79103145
   22    -286.7904637682      2.72E-09 Convergence criterion met
 Total energy in the final basis set = -286.79046377
   22    -286.7910094617      2.70E-09 Convergence criterion met
 Total energy in the final basis set = -286.79100946
   22    -286.7904877277      2.73E-09 Convergence criterion met
 Total energy in the final basis set = -286.79048773
   22    -286.7909863915      2.70E-09 Convergence criterion met
 Total energy in the final basis set = -286.79098639

                    Orbital Energies (a.u.)
 --------------------------------------------------------------

 Alpha MOs
 -- Occupied --
-14.319 -10.234 -10.221 -10.221 -10.219 -10.213 -10.200  -0.953
 -0.855  -0.759  -0.655  -0.630  -0.553  -0.535  -0.506  -0.458
 -0.436  -0.409  -0.406  -0.362  -0.350  -0.278  -0.271  -0.244
 -0.179

 Beta MOs
 -- Occupied --
-14.318 -10.235 -10.222 -10.221 -10.217 -10.207 -10.188  -0.950
 -0.847  -0.748  -0.647  -0.625  -0.547  -0.533  -0.496  -0.454
 -0.432  -0.405  -0.397  -0.357  -0.336  -0.275  -0.263  -0.239

          Ground-State Mulliken Net Atomic Charges

     Atom                 Charge (a.u.)    Spin (a.u.)
  --------------------------------------------------------
      1 C                     0.106905      -0.023075
      2 C                    -0.213405       0.087035
      3 C                    -0.149907       0.240189
      4 C                    -0.058227       0.848701
      5 C                    -0.072412      -0.098921
      6 N                    -0.334941       0.036953
      7 H                     0.145370       0.002977
      8 H                     0.147614       0.012908
      9 H                     0.143673       0.020398
     10 H                     0.147796      -0.041779
     11 H                     0.139877       0.013048
     12 C                    -0.156549      -0.099700
     13 H                     0.154206       0.001268
  --------------------------------------------------------
  Sum of atomic charges =     0.000000

                    Cartesian Multipole Moments
 -----------------------------------------------------------------
    Charge (ESU x 10^10)
                -0.0000
    Dipole Moment (Debye)
         X      -0.6949      Y      -2.3521      Z       0.3865
       Tot       2.4828
    Quadrupole Moments (Debye-Ang)
        XX     -36.1102     XY      -2.5777     YY     -42.1010
        XZ      -0.7859     YZ       0.5703     ZZ     -42.6071

             Standard Nuclear Orientation (Angstroms)
    I     Atom           X                Y                Z
 ----------------------------------------------------------------
    1      C       1.5500265563     0.5848441927    -0.2018670054
    2      C       0.9553394024    -0.7355928022    -0.0230213887
    3      C      -0.3740925575    -0.8154619320    -0.6664152438
    4      C      -1.0841097988     0.5939056249     0.8321597578
    5      C      -0.5976860110     1.0789705807    -0.4951984392
    6      N       0.7456225160     1.5268327669    -0.5262293052
    7      H       2.6265693113     0.7586186251    -0.1675103858
    8      H       1.6233533097    -1.6095721944     0.0017706240
    9      H      -0.6475247665    -1.7196105056    -1.2191833801
   10      H      -2.0698685336     0.8589543452     1.2139233400
   11      H      -1.2574290957     1.7604615853    -1.0403945592
   12      C      -0.5701227213    -0.7452882385     0.8141599252
   13      H      -0.9452526929    -1.5518108209     1.4381409635
 ----------------------------------------------------------------

 Total job time:  1168.67s(wall), 4448.75s(cpu)
        *  Thank you very much for using Q-Chem.  Have a nice day.  *
