 Q-Chem 5.0, Q-Chem, Inc., Pleasanton, CA (2017)
 Q-Chem 5.0.2 for Intel X86 EM64T Linux

User input:
--------------------------------------------------------------
$molecule
0 2
C        1.5242525169    0.5611410695   -0.2076460420
C        0.8977742156   -0.7595770098   -0.0565787793
C       -0.4034370768   -0.9101089009   -0.7270610360
C       -1.0953380242    0.5880613877    0.7501871306
C       -0.6208932951    1.1945920244   -0.4740945528
N        0.7441875091    1.5314265462   -0.5270957016
H        2.5813416712    0.7361930220   -0.0184453737
H        1.5245161516   -1.6358871683    0.0999786775
H       -0.7472227254   -1.7585131259   -1.3159934980
H       -2.0632745165    0.7994277204    1.1904733935
H       -1.2642430577    1.8494491824   -1.0584933318
C       -0.4770274981   -0.7253915717    0.7739489380
H       -0.6458109523   -1.4855619488    1.5311550788
$end

$rem
method                b3lyp
basis                 6-31+g(d,p)
unrestricted          true
symmetry              off
sym_ignore            true
incdft                false
incfock               0
scf_convergence       8
thresh                14
jobtype               rpath
scf_guess             core
scf_guess_mix         5
scf_algorithm         diis
max_scf_cycles        100
rpath_direction       1
rpath_tol_displacement 1000
rpath_max_cycles      50
geom_opt_max_cycles   300
geom_opt_hessian      read
$end

--------------------------------------------------------------

   24    -286.8277708041      2.85E-09 Convergence criterion met
 Total energy in the final basis set = -286.82777080
   24    -286.8289296984      4.28E-09 Convergence criterion met
 Total energy in the final basis set = -286.82892970
   23    -286.8288671636      9.14E-09 Convergence criterion met
 Total energy in the final basis set = -286.82886716
   24    -286.8289305463      4.21E-09 Convergence criterion met
 Total energy in the final basis set = -286.82893055
   23    -286.8320093042      5.39E-09 Convergence criterion met
 Total energy in the final basis set = -286.83200930
   23    -286.8319775743      7.07E-09 Convergence criterion met
 Total energy in the final basis set = -286.83197757
   23    -286.8320119698      7.41E-09 Convergence criterion met
 Total energy in the final basis set = -286.83201197
   23    -286.8360616311      4.55E-09 Convergence criterion met
 Total energy in the final basis set = -286.85597413
   22    -286.8575766923      5.56E-09 Convergence criterion met
 Total energy in the final basis set = -286.85757669
   22    -286.8575753595      5.79E-09 Convergence criterion met
 Total energy in the final basis set = -286.85757536
   22    -286.8575783383      5.66E-09 Convergence criterion met
 Total energy in the final basis set = -286.85757834
   22    -286.8561356611      6.72E-09 Convergence criterion met
 Total energy in the final basis set = -286.85613566
   22    -286.8575819367      5.73E-09 Convergence criterion met
 Total energy in the final basis set = -286.85758194
   22    -286.8575801532      5.63E-09 Convergence criterion met
 Total energy in the final basis set = -286.85758015
   22    -286.8575835626      5.69E-09 Convergence criterion met
 Total energy in the final basis set = -286.85758356

                    Orbital Energies (a.u.)
 --------------------------------------------------------------

 Alpha MOs
 -- Occupied --
-14.332 -10.231 -10.230 -10.226 -10.224 -10.222 -10.206  -0.976
 -0.870  -0.757  -0.667  -0.617  -0.584  -0.549  -0.519  -0.473
 -0.438  -0.422  -0.399  -0.375  -0.339  -0.326  -0.277  -0.268
 -0.184

 Beta MOs
 -- Occupied --
-14.332 -10.231 -10.231 -10.226 -10.222 -10.221 -10.193  -0.972
 -0.865  -0.747  -0.656  -0.612  -0.581  -0.547  -0.509  -0.470
 -0.433  -0.416  -0.396  -0.371  -0.327  -0.314  -0.274  -0.266

          Ground-State Mulliken Net Atomic Charges

     Atom                 Charge (a.u.)    Spin (a.u.)
  --------------------------------------------------------
      1 C                    -0.060250      -0.001260
      2 C                    -0.084250       0.004942
      3 C                    -0.102040       0.145209
      4 C                    -0.050887       1.025374
      5 C                    -0.151396      -0.103616
      6 N                    -0.194017       0.023847
      7 H                     0.132714       0.004213
      8 H                     0.138983       0.002210
      9 H                     0.135286       0.008637
     10 H                     0.135297      -0.038684
     11 H                     0.134297       0.005142
     12 C                    -0.174932      -0.075944
     13 H                     0.141195      -0.000069
  --------------------------------------------------------
  Sum of atomic charges =    -0.000000

                    Cartesian Multipole Moments
 -----------------------------------------------------------------
    Charge (ESU x 10^10)
                -0.0000
    Dipole Moment (Debye)
         X      -0.6790      Y      -3.1360      Z       0.0583
       Tot       3.2092
    Quadrupole Moments (Debye-Ang)
        XX     -37.3998     XY      -2.8758     YY     -45.3701
        XZ       1.2485     YZ       0.2480     ZZ     -42.4127

             Standard Nuclear Orientation (Angstroms)
    I     Atom           X                Y                Z
 ----------------------------------------------------------------
    1      C       1.5242525169     0.5611410695    -0.2076460420
    2      C       0.8977742156    -0.7595770098    -0.0565787793
    3      C      -0.4034370768    -0.9101089009    -0.7270610360
    4      C      -1.0953380242     0.5880613877     0.7501871306
    5      C      -0.6208932951     1.1945920244    -0.4740945528
    6      N       0.7441875091     1.5314265462    -0.5270957016
    7      H       2.5813416712     0.7361930220    -0.0184453737
    8      H       1.5245161516    -1.6358871683     0.0999786775
    9      H      -0.7472227254    -1.7585131259    -1.3159934980
   10      H      -2.0632745165     0.7994277204     1.1904733935
   11      H      -1.2642430577     1.8494491824    -1.0584933318
   12      C      -0.4770274981    -0.7253915717     0.7739489380
   13      H      -0.6458109523    -1.4855619488     1.5311550788
 ----------------------------------------------------------------

 Total job time:  8889.81s(wall), 34457.78s(cpu)
        *  Thank you very much for using Q-Chem.  Have a nice day.  *
