 Q-Chem 5.0, Q-Chem, Inc., Pleasanton, CA (2017)
 Q-Chem 5.0.2 for Intel X86 EM64T Linux

User input:
--------------------------------------------------------------
$molecule
0 2
C        1.5440404333    0.5861293134   -0.1642656935
C        0.8932240621   -0.7432938957    0.0274589318
C       -0.4118021088   -0.6570999196   -0.6948209223
C       -1.0183475571    0.6294805270    0.8815113260
C       -0.6032954815    0.9022185475   -0.5702328577
N        0.7481623825    1.5150230143   -0.5423615294
H        2.5983866781    0.7809973401    0.0292120357
H        1.4557634281   -1.6712684557    0.0633870647
H       -0.8129686200   -1.3478195967   -1.4308827970
H       -1.9834849206    0.8770013627    1.3088557403
H       -1.2899603538    1.4326196268   -1.2296229830
C       -0.4463686444   -0.7299036655    0.8394551851
H       -0.6733492982   -1.5740841980    1.4823064987
$end

$rem
method                b3lyp
basis                 6-31g(d)
unrestricted          true
symmetry              off
sym_ignore            true
incdft                false
incfock               0
scf_convergence       8
thresh                14
jobtype               opt
scf_guess             core
scf_guess_mix         5
scf_algorithm         diis
max_scf_cycles        100
geom_opt_max_cycles   300
$end

--------------------------------------------------------------

   20    -286.8365048668      9.83E-09 Convergence criterion met
 Total energy in the final basis set = -286.83650487

             Standard Nuclear Orientation (Angstroms)
    I     Atom           X                Y                Z
 ----------------------------------------------------------------
    1      C       1.5442260122     0.5858170099    -0.1648227007
    2      C       0.8933928188    -0.7433281533     0.0274524181
    3      C      -0.4116294351    -0.6568399607    -0.6947308194
    4      C      -1.0190626743     0.6293213101     0.8813309350
    5      C      -0.6034654431     0.9023794952    -0.5700925198
    6      N       0.7480965927     1.5150152936    -0.5418434138
    7      H       2.5985034105     0.7806894678     0.0288947196
    8      H       1.4558011547    -1.6713749082     0.0632118031
    9      H      -0.8124854917    -1.3478788806    -1.4307367237
   10      H      -1.9839980831     0.8769962878     1.3090357089
   11      H      -1.2898439338     1.4327961462    -1.2297459986
   12      C      -0.4462241013    -0.7297048709     0.8396281663
   13      H      -0.6733108267    -1.5738882364     1.4824184246
 ----------------------------------------------------------------

   16    -286.8365051348      4.68E-09 Convergence criterion met
 Total energy in the final basis set = -286.83650513
 Final energy is   -286.836505134803
 **  OPTIMIZATION CONVERGED  **

                    Orbital Energies (a.u.)
 --------------------------------------------------------------

 Alpha MOs
 -- Occupied --
-14.317 -10.220 -10.220 -10.215 -10.212 -10.211 -10.194  -0.964
 -0.858  -0.746  -0.657  -0.608  -0.574  -0.540  -0.512  -0.463
 -0.429  -0.412  -0.388  -0.366  -0.329  -0.315  -0.266  -0.256
 -0.174

 Beta MOs
 -- Occupied --
-14.317 -10.221 -10.220 -10.216 -10.211 -10.210 -10.181  -0.961
 -0.854  -0.737  -0.646  -0.602  -0.571  -0.538  -0.501  -0.461
 -0.425  -0.406  -0.384  -0.362  -0.317  -0.303  -0.263  -0.254

          Ground-State Mulliken Net Atomic Charges

     Atom                 Charge (a.u.)    Spin (a.u.)
  --------------------------------------------------------
      1 C                     0.096366       0.006650
      2 C                    -0.192055       0.036617
      3 C                    -0.107239       0.107757
      4 C                    -0.071371       0.952324
      5 C                    -0.099683      -0.043368
      6 N                    -0.337207       0.012615
      7 H                     0.143755       0.003967
      8 H                     0.148657       0.001442
      9 H                     0.149539       0.008548
     10 H                     0.139503      -0.039473
     11 H                     0.141908       0.005421
     12 C                    -0.161806      -0.052869
     13 H                     0.149633       0.000368
  --------------------------------------------------------
  Sum of atomic charges =    -0.000000

                    Cartesian Multipole Moments
 -----------------------------------------------------------------
    Charge (ESU x 10^10)
                -0.0000
    Dipole Moment (Debye)
         X      -0.6274      Y      -2.7632      Z       0.1060
       Tot       2.8355
    Quadrupole Moments (Debye-Ang)
        XX     -36.7839     XY      -2.5626     YY     -43.5418
        XZ       0.9771     YZ       0.4423     ZZ     -40.9461

 Total job time:  28.55s(wall), 105.54s(cpu)
        *  Thank you very much for using Q-Chem.  Have a nice day.  *
