 Q-Chem 5.0, Q-Chem, Inc., Pleasanton, CA (2017)
 Q-Chem 5.0.2 for Intel X86 EM64T Linux

User input:
--------------------------------------------------------------
$molecule
0 2
C        1.5242525169    0.5611410695   -0.2076460420
C        0.8977742156   -0.7595770098   -0.0565787793
C       -0.4034370768   -0.9101089009   -0.7270610360
C       -1.0953380242    0.5880613877    0.7501871306
C       -0.6208932951    1.1945920244   -0.4740945528
N        0.7441875091    1.5314265462   -0.5270957016
H        2.5813416712    0.7361930220   -0.0184453737
H        1.5245161516   -1.6358871683    0.0999786775
H       -0.7472227254   -1.7585131259   -1.3159934980
H       -2.0632745165    0.7994277204    1.1904733935
H       -1.2642430577    1.8494491824   -1.0584933318
C       -0.4770274981   -0.7253915717    0.7739489380
H       -0.6458109523   -1.4855619488    1.5311550788
$end

$rem
method                b3lyp
basis                 6-31+g(d,p)
unrestricted          true
symmetry              off
sym_ignore            true
incdft                false
incfock               0
scf_convergence       8
thresh                14
jobtype               sp
scf_guess             read
scf_algorithm         diis
max_scf_cycles        100
$end

--------------------------------------------------------------

             Standard Nuclear Orientation (Angstroms)
    I     Atom           X                Y                Z
 ----------------------------------------------------------------
    1      C       1.5242525169     0.5611410695    -0.2076460420
    2      C       0.8977742156    -0.7595770098    -0.0565787793
    3      C      -0.4034370768    -0.9101089009    -0.7270610360
    4      C      -1.0953380242     0.5880613877     0.7501871306
    5      C      -0.6208932951     1.1945920244    -0.4740945528
    6      N       0.7441875091     1.5314265462    -0.5270957016
    7      H       2.5813416712     0.7361930220    -0.0184453737
    8      H       1.5245161516    -1.6358871683     0.0999786775
    9      H      -0.7472227254    -1.7585131259    -1.3159934980
   10      H      -2.0632745165     0.7994277204     1.1904733935
   11      H      -1.2642430577     1.8494491824    -1.0584933318
   12      C      -0.4770274981    -0.7253915717     0.7739489380
   13      H      -0.6458109523    -1.4855619488     1.5311550788
 ----------------------------------------------------------------

    2    -286.8277708041      3.21E-09 Convergence criterion met
 Total energy in the final basis set = -286.82777080

                    Orbital Energies (a.u.)
 --------------------------------------------------------------

 Alpha MOs
 -- Occupied --
-14.341 -10.244 -10.236 -10.226 -10.224 -10.219 -10.210  -0.965
 -0.871  -0.772  -0.664  -0.634  -0.578  -0.543  -0.511  -0.477
 -0.454  -0.431  -0.416  -0.369  -0.349  -0.292  -0.284  -0.256
 -0.181

 Beta MOs
 -- Occupied --
-14.341 -10.246 -10.237 -10.227 -10.223 -10.209 -10.200  -0.962
 -0.864  -0.763  -0.655  -0.632  -0.568  -0.540  -0.504  -0.472
 -0.451  -0.428  -0.407  -0.367  -0.332  -0.292  -0.282  -0.239

          Ground-State Mulliken Net Atomic Charges

     Atom                 Charge (a.u.)    Spin (a.u.)
  --------------------------------------------------------
      1 C                    -0.065323      -0.051223
      2 C                    -0.070052      -0.014797
      3 C                    -0.264434       0.545284
      4 C                    -0.000250       0.755043
      5 C                    -0.135440      -0.198389
      6 N                    -0.149713       0.039667
      7 H                     0.134123       0.002582
      8 H                     0.142321       0.021213
      9 H                     0.129344       0.011844
     10 H                     0.141459      -0.036365
     11 H                     0.127290       0.010717
     12 C                    -0.129480      -0.086996
     13 H                     0.140156       0.001419
  --------------------------------------------------------
  Sum of atomic charges =    -0.000000

                    Cartesian Multipole Moments
 -----------------------------------------------------------------
    Charge (ESU x 10^10)
                 0.0000
    Dipole Moment (Debye)
         X      -0.4380      Y      -2.3911      Z       0.7711
       Tot       2.5503
    Quadrupole Moments (Debye-Ang)
        XX     -37.5374     XY      -3.2480     YY     -43.7774
        XZ       0.4185     YZ       0.0345     ZZ     -43.2565

 Total job time:  3.18s(wall), 11.47s(cpu)
        *  Thank you very much for using Q-Chem.  Have a nice day.  *
