 Q-Chem 5.0, Q-Chem, Inc., Pleasanton, CA (2017)
 Q-Chem 5.0.2 for Intel X86 EM64T Linux

User input:
--------------------------------------------------------------
$molecule
0 2
C        1.5227237216    0.5612638217   -0.2105959865
C        0.8947581597   -0.7590830577   -0.0565425624
C       -0.4074602829   -0.9093736739   -0.7265730112
C       -1.0906061341    0.5938093405    0.7554576156
C       -0.6184536340    1.1961592046   -0.4696770917
N        0.7465481530    1.5339415713   -0.5244516038
H        2.5815511194    0.7334544658   -0.0228222930
H        1.5212175144   -1.6361045016    0.0992428788
H       -0.7456139353   -1.7641418090   -1.3108209860
H       -2.0718895966    0.7878950702    1.1747911503
H       -1.2615151950    1.8540600227   -1.0527917270
C       -0.4751967505   -0.7239370299    0.7724063173
H       -0.6412382214   -1.4826921974    1.5327122027
$end

$rem
method                b3lyp
basis                 6-31g(d)
unrestricted          true
symmetry              off
sym_ignore            true
incdft                false
incfock               0
scf_convergence       6
thresh                14
jobtype               sp
scf_guess             read
scf_algorithm         diis
max_scf_cycles        100
stability_analysis    true
max_cis_cycles        100
cis_n_roots           4
$end

--------------------------------------------------------------

             Standard Nuclear Orientation (Angstroms)
    I     Atom           X                Y                Z
 ----------------------------------------------------------------
    1      C       1.5227237216     0.5612638217    -0.2105959865
    2      C       0.8947581597    -0.7590830577    -0.0565425624
    3      C      -0.4074602829    -0.9093736739    -0.7265730112
    4      C      -1.0906061341     0.5938093405     0.7554576156
    5      C      -0.6184536340     1.1961592046    -0.4696770917
    6      N       0.7465481530     1.5339415713    -0.5244516038
    7      H       2.5815511194     0.7334544658    -0.0228222930
    8      H       1.5212175144    -1.6361045016     0.0992428788
    9      H      -0.7456139353    -1.7641418090    -1.3108209860
   10      H      -2.0718895966     0.7878950702     1.1747911503
   11      H      -1.2615151950     1.8540600227    -1.0527917270
   12      C      -0.4751967505    -0.7239370299     0.7724063173
   13      H      -0.6412382214    -1.4826921974     1.5327122027
 ----------------------------------------------------------------

    2    -286.8056637128      2.06E-09 Convergence criterion met
 Total energy in the final basis set = -286.80566371

         TDDFT/TDA Excitation Energies
 ---------------------------------------------------

 Excited state   1: excitation energy (eV) =    2.4711
 Total energy for state  1:                  -286.71485140 au
    <S**2>     :  0.7680
    Trans. Mom.: -0.1908 X  -0.0086 Y   0.2491 Z
    Strength   :     0.0059646108
    S(  1) --> V(  1) amplitude =  0.9110 alpha
    D( 24) --> S(  1) amplitude =  0.3575 beta

 Excited state   2: excitation energy (eV) =    3.4176
 Total energy for state  2:                  -286.68007025 au
    <S**2>     :  1.4979
    Trans. Mom.:  0.0717 X  -0.2406 Y  -0.2761 Z
    Strength   :     0.0116618509
    D( 24) --> V(  1) amplitude =  0.3422 alpha
    S(  1) --> V(  1) amplitude = -0.3206 alpha
    S(  1) --> V(  2) amplitude = -0.2232 alpha
    D( 24) --> S(  1) amplitude =  0.7738 beta
    D( 24) --> V(  1) amplitude = -0.2762 beta

 Excited state   3: excitation energy (eV) =    4.0591
 Total energy for state  3:                  -286.65649364 au
    <S**2>     :  1.6347
    Trans. Mom.: -0.1070 X   0.0531 Y   0.0394 Z
    Strength   :     0.0015729504
    D( 24) --> V(  1) amplitude =  0.4855 alpha
    S(  1) --> V(  1) amplitude =  0.1519 alpha
    S(  1) --> V(  2) amplitude =  0.6683 alpha
    D( 24) --> S(  1) amplitude = -0.1528 beta
    D( 24) --> V(  1) amplitude = -0.4840 beta

 Excited state   4: excitation energy (eV) =    4.1918
 Total energy for state  4:                  -286.65161902 au
    <S**2>     :  1.1672
    Trans. Mom.:  0.0109 X  -0.2316 Y  -0.2732 Z
    Strength   :     0.0131840800
    D( 24) --> V(  1) amplitude = -0.2514 alpha
    S(  1) --> V(  2) amplitude =  0.6732 alpha
    D( 23) --> S(  1) amplitude = -0.1553 beta
    D( 24) --> S(  1) amplitude =  0.4202 beta
    D( 24) --> V(  1) amplitude =  0.4395 beta

 ---------------------------------------------------

                    Orbital Energies (a.u.)
 --------------------------------------------------------------

 Alpha MOs
 -- Occupied --
-14.327 -10.233 -10.226 -10.215 -10.212 -10.207 -10.197  -0.953
 -0.860  -0.761  -0.654  -0.623  -0.569  -0.534  -0.503  -0.467
 -0.445  -0.421  -0.405  -0.359  -0.338  -0.280  -0.273  -0.245
 -0.170

 Beta MOs
 -- Occupied --
-14.327 -10.235 -10.226 -10.216 -10.212 -10.197 -10.187  -0.951
 -0.852  -0.752  -0.644  -0.622  -0.559  -0.531  -0.495  -0.462
 -0.442  -0.418  -0.396  -0.357  -0.321  -0.281  -0.271  -0.227

          Ground-State Mulliken Net Atomic Charges

     Atom                 Charge (a.u.)    Spin (a.u.)
  --------------------------------------------------------
      1 C                     0.112221      -0.032684
      2 C                    -0.196524       0.013336
      3 C                    -0.169858       0.519842
      4 C                    -0.046839       0.724056
      5 C                    -0.063204      -0.177635
      6 N                    -0.340527       0.020385
      7 H                     0.147669       0.002600
      8 H                     0.150883       0.019534
      9 H                     0.140107       0.012003
     10 H                     0.145804      -0.036008
     11 H                     0.141945       0.011110
     12 C                    -0.169625      -0.078026
     13 H                     0.147949       0.001487
  --------------------------------------------------------
  Sum of atomic charges =     0.000000

                    Cartesian Multipole Moments
 -----------------------------------------------------------------
    Charge (ESU x 10^10)
                 0.0000
    Dipole Moment (Debye)
         X      -0.3514      Y      -2.0995      Z       0.7888
       Tot       2.2702
    Quadrupole Moments (Debye-Ang)
        XX     -36.7477     XY      -2.9249     YY     -42.0084
        XZ       0.3551     YZ       0.1424     ZZ     -41.7112

 Total job time:  87.27s(wall), 85.34s(cpu)
        *  Thank you very much for using Q-Chem.  Have a nice day.  *
