 Q-Chem 5.0, Q-Chem, Inc., Pleasanton, CA (2017)
 Q-Chem 5.0.2 for Intel X86 EM64T Linux

User input:
--------------------------------------------------------------
$molecule
0 2
C        1.5500265563    0.5848441927   -0.2018670054
C        0.9553394024   -0.7355928022   -0.0230213887
C       -0.3740925575   -0.8154619320   -0.6664152438
C       -1.0841097988    0.5939056249    0.8321597578
C       -0.5976860110    1.0789705807   -0.4951984392
N        0.7456225160    1.5268327669   -0.5262293052
H        2.6265693113    0.7586186251   -0.1675103858
H        1.6233533097   -1.6095721944    0.0017706240
H       -0.6475247665   -1.7196105056   -1.2191833801
H       -2.0698685336    0.8589543452    1.2139233400
H       -1.2574290957    1.7604615853   -1.0403945592
C       -0.5701227213   -0.7452882385    0.8141599252
H       -0.9452526929   -1.5518108209    1.4381409635
$end

$rem
method                b3lyp
basis                 6-31g(d)
unrestricted          true
symmetry              off
sym_ignore            true
incdft                false
incfock               0
scf_convergence       8
thresh                14
jobtype               ts
scf_guess             read
scf_algorithm         diis
max_scf_cycles        100
geom_opt_max_cycles   500
geom_opt_dmax         100
geom_opt_tol_gradient 10
geom_opt_hessian      read
$end

--------------------------------------------------------------

    2    -286.8012429264      9.51E-10 Convergence criterion met
 Total energy in the final basis set = -286.80124293
   14    -286.8013191595      6.85E-09 Convergence criterion met
 Total energy in the final basis set = -286.80131916
   14    -286.8015341143      8.69E-09 Convergence criterion met
 Total energy in the final basis set = -286.80153411
   15    -286.8019416218      6.61E-09 Convergence criterion met
 Total energy in the final basis set = -286.80194162
   15    -286.8024922405      7.37E-09 Convergence criterion met
 Total energy in the final basis set = -286.80249224
   15    -286.8031239850      7.49E-09 Convergence criterion met
 Total energy in the final basis set = -286.80312398
   15    -286.8037685292      7.07E-09 Convergence criterion met
 Total energy in the final basis set = -286.80376853
   15    -286.8043623869      6.57E-09 Convergence criterion met
   15    -286.8055093966      7.44E-09 Convergence criterion met
 Total energy in the final basis set = -286.80550940
   13    -286.8055815747      6.48E-09 Convergence criterion met
 Total energy in the final basis set = -286.80558157
   15    -286.8056579797      5.73E-09 Convergence criterion met
 Total energy in the final basis set = -286.80565798
   13    -286.8056623328      3.99E-09 Convergence criterion met
 Total energy in the final basis set = -286.80566233
   12    -286.8056636797      5.52E-09 Convergence criterion met
 Total energy in the final basis set = -286.80566368
   10    -286.8056637085      6.70E-09 Convergence criterion met
 Total energy in the final basis set = -286.80566371

             Standard Nuclear Orientation (Angstroms)
    I     Atom           X                Y                Z
 ----------------------------------------------------------------
    1      C       1.5227237216     0.5612638217    -0.2105959865
    2      C       0.8947581597    -0.7590830577    -0.0565425624
    3      C      -0.4074602829    -0.9093736739    -0.7265730112
    4      C      -1.0906061341     0.5938093405     0.7554576156
    5      C      -0.6184536340     1.1961592046    -0.4696770917
    6      N       0.7465481530     1.5339415713    -0.5244516038
    7      H       2.5815511194     0.7334544658    -0.0228222930
    8      H       1.5212175144    -1.6361045016     0.0992428788
    9      H      -0.7456139353    -1.7641418090    -1.3108209860
   10      H      -2.0718895966     0.7878950702     1.1747911503
   11      H      -1.2615151950     1.8540600227    -1.0527917270
   12      C      -0.4751967505    -0.7239370299     0.7724063173
   13      H      -0.6412382214    -1.4826921974     1.5327122027
 ----------------------------------------------------------------

    9    -286.8056637128      6.80E-09 Convergence criterion met
 Total energy in the final basis set = -286.80566371
 Final energy is   -286.805663712807
 **  OPTIMIZATION CONVERGED  **

                    Orbital Energies (a.u.)
 --------------------------------------------------------------

 Alpha MOs
 -- Occupied --
-14.327 -10.233 -10.226 -10.215 -10.212 -10.207 -10.197  -0.953
 -0.860  -0.761  -0.654  -0.623  -0.569  -0.534  -0.503  -0.467
 -0.445  -0.421  -0.405  -0.359  -0.338  -0.280  -0.273  -0.245
 -0.170

 Beta MOs
 -- Occupied --
-14.327 -10.235 -10.226 -10.216 -10.212 -10.197 -10.187  -0.951
 -0.852  -0.752  -0.644  -0.622  -0.559  -0.531  -0.495  -0.462
 -0.442  -0.418  -0.396  -0.357  -0.321  -0.281  -0.271  -0.227

          Ground-State Mulliken Net Atomic Charges

     Atom                 Charge (a.u.)    Spin (a.u.)
  --------------------------------------------------------
      1 C                     0.112221      -0.032684
      2 C                    -0.196524       0.013336
      3 C                    -0.169858       0.519840
      4 C                    -0.046839       0.724056
      5 C                    -0.063204      -0.177634
      6 N                    -0.340527       0.020384
      7 H                     0.147669       0.002600
      8 H                     0.150883       0.019534
      9 H                     0.140107       0.012003
     10 H                     0.145804      -0.036008
     11 H                     0.141945       0.011110
     12 C                    -0.169624      -0.078026
     13 H                     0.147949       0.001487
  --------------------------------------------------------
  Sum of atomic charges =    -0.000000

                    Cartesian Multipole Moments
 -----------------------------------------------------------------
    Charge (ESU x 10^10)
                 0.0000
    Dipole Moment (Debye)
         X      -0.3514      Y      -2.0995      Z       0.7888
       Tot       2.2702
    Quadrupole Moments (Debye-Ang)
        XX     -36.7477     XY      -2.9249     YY     -42.0084
        XZ       0.3551     YZ       0.1424     ZZ     -41.7112

 Total job time:  192.09s(wall), 725.86s(cpu)
        *  Thank you very much for using Q-Chem.  Have a nice day.  *
