 Q-Chem 5.0, Q-Chem, Inc., Pleasanton, CA (2017)
 Q-Chem 5.0.2 for Intel X86 EM64T Linux

User input:
--------------------------------------------------------------
$molecule
0 2
C        1.5227237216    0.5612638217   -0.2105959865
C        0.8947581597   -0.7590830577   -0.0565425624
C       -0.4074602829   -0.9093736739   -0.7265730112
C       -1.0906061341    0.5938093405    0.7554576156
C       -0.6184536340    1.1961592046   -0.4696770917
N        0.7465481530    1.5339415713   -0.5244516038
H        2.5815511194    0.7334544658   -0.0228222930
H        1.5212175144   -1.6361045016    0.0992428788
H       -0.7456139353   -1.7641418090   -1.3108209860
H       -2.0718895966    0.7878950702    1.1747911503
H       -1.2615151950    1.8540600227   -1.0527917270
C       -0.4751967505   -0.7239370299    0.7724063173
H       -0.6412382214   -1.4826921974    1.5327122027
$end

$rem
method                b3lyp
basis                 6-31+g(d,p)
unrestricted          true
symmetry              off
sym_ignore            true
incdft                false
incfock               0
scf_convergence       6
thresh                14
jobtype               sp
scf_guess             read
scf_algorithm         diis
max_scf_cycles        100
stability_analysis    true
max_cis_cycles        100
cis_n_roots           4
$end

--------------------------------------------------------------

             Standard Nuclear Orientation (Angstroms)
    I     Atom           X                Y                Z
 ----------------------------------------------------------------
    1      C       1.5227237216     0.5612638217    -0.2105959865
    2      C       0.8947581597    -0.7590830577    -0.0565425624
    3      C      -0.4074602829    -0.9093736739    -0.7265730112
    4      C      -1.0906061341     0.5938093405     0.7554576156
    5      C      -0.6184536340     1.1961592046    -0.4696770917
    6      N       0.7465481530     1.5339415713    -0.5244516038
    7      H       2.5815511194     0.7334544658    -0.0228222930
    8      H       1.5212175144    -1.6361045016     0.0992428788
    9      H      -0.7456139353    -1.7641418090    -1.3108209860
   10      H      -2.0718895966     0.7878950702     1.1747911503
   11      H      -1.2615151950     1.8540600227    -1.0527917270
   12      C      -0.4751967505    -0.7239370299     0.7724063173
   13      H      -0.6412382214    -1.4826921974     1.5327122027
 ----------------------------------------------------------------

    2    -286.8277271632      1.76E-09 Convergence criterion met
 Total energy in the final basis set = -286.82772716

         TDDFT/TDA Excitation Energies
 ---------------------------------------------------

 Excited state   1: excitation energy (eV) =    2.3791
 Total energy for state  1:                  -286.74029837 au
    <S**2>     :  0.7682
    Trans. Mom.: -0.1983 X   0.0097 Y   0.2880 Z
    Strength   :     0.0071320867
    S(  1) --> V(  1) amplitude =  0.9180 alpha
    D( 24) --> S(  1) amplitude =  0.3430 beta

 Excited state   2: excitation energy (eV) =    3.2946
 Total energy for state  2:                  -286.70665337 au
    <S**2>     :  1.3459
    Trans. Mom.:  0.0858 X  -0.2487 Y  -0.2783 Z
    Strength   :     0.0118376197
    D( 24) --> V(  1) amplitude =  0.3041 alpha
    S(  1) --> V(  1) amplitude = -0.3213 alpha
    S(  1) --> V(  3) amplitude = -0.1878 alpha
    D( 24) --> S(  1) amplitude =  0.7972 beta
    D( 24) --> V(  1) amplitude = -0.2419 beta

 Excited state   3: excitation energy (eV) =    3.9047
 Total energy for state  3:                  -286.68423315 au
    <S**2>     :  1.4246
    Trans. Mom.: -0.1266 X  -0.1017 Y  -0.0858 Z
    Strength   :     0.0032269414
    D( 24) --> V(  1) amplitude =  0.4083 alpha
    S(  1) --> V(  2) amplitude =  0.4697 alpha
    S(  1) --> V(  3) amplitude =  0.6318 alpha
    D( 24) --> V(  1) amplitude = -0.3933 beta

 Excited state   4: excitation energy (eV) =    4.0027
 Total energy for state  4:                  -286.68062929 au
    <S**2>     :  1.4825
    Trans. Mom.:  0.0357 X  -0.2902 Y  -0.3339 Z
    Strength   :     0.0193181701
    D( 24) --> V(  1) amplitude = -0.3635 alpha
    S(  1) --> V(  2) amplitude =  0.4169 alpha
    S(  1) --> V(  3) amplitude =  0.3116 alpha
    D( 24) --> S(  1) amplitude =  0.4181 beta
    D( 24) --> V(  1) amplitude =  0.5621 beta

 ---------------------------------------------------

                    Orbital Energies (a.u.)
 --------------------------------------------------------------

 Alpha MOs
 -- Occupied --
-14.341 -10.244 -10.236 -10.226 -10.223 -10.219 -10.210  -0.966
 -0.872  -0.772  -0.664  -0.634  -0.578  -0.543  -0.511  -0.477
 -0.454  -0.431  -0.415  -0.368  -0.350  -0.292  -0.285  -0.257
 -0.182

 Beta MOs
 -- Occupied --
-14.341 -10.247 -10.237 -10.227 -10.223 -10.209 -10.200  -0.963
 -0.865  -0.763  -0.655  -0.632  -0.568  -0.540  -0.503  -0.472
 -0.451  -0.428  -0.406  -0.366  -0.333  -0.293  -0.282  -0.240

          Ground-State Mulliken Net Atomic Charges

     Atom                 Charge (a.u.)    Spin (a.u.)
  --------------------------------------------------------
      1 C                    -0.063015      -0.054138
      2 C                    -0.070659      -0.016592
      3 C                    -0.267397       0.545242
      4 C                    -0.005567       0.759021
      5 C                    -0.131326      -0.198890
      6 N                    -0.150134       0.038953
      7 H                     0.133847       0.002637
      8 H                     0.142468       0.020738
      9 H                     0.129410       0.012771
     10 H                     0.140919      -0.036195
     11 H                     0.127399       0.010369
     12 C                    -0.126063      -0.085132
     13 H                     0.140119       0.001217
  --------------------------------------------------------
  Sum of atomic charges =     0.000000

                    Cartesian Multipole Moments
 -----------------------------------------------------------------
    Charge (ESU x 10^10)
                 0.0000
    Dipole Moment (Debye)
         X      -0.4271      Y      -2.3943      Z       0.7475
       Tot       2.5444
    Quadrupole Moments (Debye-Ang)
        XX     -37.5289     XY      -3.2379     YY     -43.7738
        XZ       0.4210     YZ      -0.0098     ZZ     -43.3139

 Total job time:  213.28s(wall), 211.72s(cpu)
        *  Thank you very much for using Q-Chem.  Have a nice day.  *
