 Q-Chem 5.0, Q-Chem, Inc., Pleasanton, CA (2017)
 Q-Chem 5.0.2 for Intel X86 EM64T Linux

User input:
--------------------------------------------------------------
$molecule
0 2
C        1.5500265563    0.5848441927   -0.2018670054
C        0.9553394024   -0.7355928022   -0.0230213887
C       -0.3740925575   -0.8154619320   -0.6664152438
C       -1.0841097988    0.5939056249    0.8321597578
C       -0.5976860110    1.0789705807   -0.4951984392
N        0.7456225160    1.5268327669   -0.5262293052
H        2.6265693113    0.7586186251   -0.1675103858
H        1.6233533097   -1.6095721944    0.0017706240
H       -0.6475247665   -1.7196105056   -1.2191833801
H       -2.0698685336    0.8589543452    1.2139233400
H       -1.2574290957    1.7604615853   -1.0403945592
C       -0.5701227213   -0.7452882385    0.8141599252
H       -0.9452526929   -1.5518108209    1.4381409635
$end

$rem
method                b3lyp
basis                 6-31g(d)
unrestricted          true
symmetry              off
sym_ignore            true
incdft                false
incfock               0
scf_convergence       8
thresh                14
jobtype               sp
scf_guess             core
scf_guess_mix         5
scf_algorithm         diis
max_scf_cycles        100
$end

--------------------------------------------------------------

             Standard Nuclear Orientation (Angstroms)
    I     Atom           X                Y                Z
 ----------------------------------------------------------------
    1      C       1.5500265563     0.5848441927    -0.2018670054
    2      C       0.9553394024    -0.7355928022    -0.0230213887
    3      C      -0.3740925575    -0.8154619320    -0.6664152438
    4      C      -1.0841097988     0.5939056249     0.8321597578
    5      C      -0.5976860110     1.0789705807    -0.4951984392
    6      N       0.7456225160     1.5268327669    -0.5262293052
    7      H       2.6265693113     0.7586186251    -0.1675103858
    8      H       1.6233533097    -1.6095721944     0.0017706240
    9      H      -0.6475247665    -1.7196105056    -1.2191833801
   10      H      -2.0698685336     0.8589543452     1.2139233400
   11      H      -1.2574290957     1.7604615853    -1.0403945592
   12      C      -0.5701227213    -0.7452882385     0.8141599252
   13      H      -0.9452526929    -1.5518108209     1.4381409635
 ----------------------------------------------------------------

   21    -286.8012429264      8.63E-09 Convergence criterion met
 Total energy in the final basis set = -286.80124293

                    Orbital Energies (a.u.)
 --------------------------------------------------------------

 Alpha MOs
 -- Occupied --
-14.319 -10.234 -10.221 -10.219 -10.216 -10.213 -10.197  -0.953
 -0.854  -0.757  -0.654  -0.627  -0.556  -0.536  -0.508  -0.458
 -0.437  -0.408  -0.408  -0.362  -0.347  -0.281  -0.269  -0.246
 -0.177

 Beta MOs
 -- Occupied --
-14.318 -10.235 -10.222 -10.220 -10.214 -10.208 -10.185  -0.950
 -0.847  -0.747  -0.646  -0.623  -0.550  -0.533  -0.497  -0.455
 -0.433  -0.404  -0.399  -0.357  -0.332  -0.278  -0.261  -0.242

          Ground-State Mulliken Net Atomic Charges

     Atom                 Charge (a.u.)    Spin (a.u.)
  --------------------------------------------------------
      1 C                     0.107054      -0.018172
      2 C                    -0.209697       0.082099
      3 C                    -0.148005       0.211582
      4 C                    -0.055568       0.869318
      5 C                    -0.075855      -0.088263
      6 N                    -0.337331       0.035041
      7 H                     0.145257       0.002900
      8 H                     0.148848       0.009610
      9 H                     0.144129       0.018628
     10 H                     0.145596      -0.042196
     11 H                     0.141376       0.011931
     12 C                    -0.158762      -0.093813
     13 H                     0.152956       0.001335
  --------------------------------------------------------
  Sum of atomic charges =    -0.000000

                    Cartesian Multipole Moments
 -----------------------------------------------------------------
    Charge (ESU x 10^10)
                -0.0000
    Dipole Moment (Debye)
         X      -0.6622      Y      -2.3914      Z       0.4191
       Tot       2.5165
    Quadrupole Moments (Debye-Ang)
        XX     -36.2809     XY      -2.6460     YY     -42.1732
        XZ      -0.3845     YZ       0.5325     ZZ     -42.3189

 Total job time:  13.70s(wall), 51.92s(cpu)
        *  Thank you very much for using Q-Chem.  Have a nice day.  *
