 Q-Chem 5.0, Q-Chem, Inc., Pleasanton, CA (2017)
 Q-Chem 5.0.2 for Intel X86 EM64T Linux

User input:
--------------------------------------------------------------
$molecule
0 2
C        1.5500265563    0.5848441927   -0.2018670054
C        0.9553394024   -0.7355928022   -0.0230213887
C       -0.3740925575   -0.8154619320   -0.6664152438
C       -1.0841097988    0.5939056249    0.8321597578
C       -0.5976860110    1.0789705807   -0.4951984392
N        0.7456225160    1.5268327669   -0.5262293052
H        2.6265693113    0.7586186251   -0.1675103858
H        1.6233533097   -1.6095721944    0.0017706240
H       -0.6475247665   -1.7196105056   -1.2191833801
H       -2.0698685336    0.8589543452    1.2139233400
H       -1.2574290957    1.7604615853   -1.0403945592
C       -0.5701227213   -0.7452882385    0.8141599252
H       -0.9452526929   -1.5518108209    1.4381409635
$end

$rem
method                b3lyp
basis                 6-31g(d)
unrestricted          true
symmetry              off
sym_ignore            true
incdft                false
incfock               0
scf_convergence       8
thresh                14
jobtype               freq
scf_guess             read
scf_algorithm         diis
max_scf_cycles        100
$end

--------------------------------------------------------------

             Standard Nuclear Orientation (Angstroms)
    I     Atom           X                Y                Z
 ----------------------------------------------------------------
    1      C       1.5500265563     0.5848441927    -0.2018670054
    2      C       0.9553394024    -0.7355928022    -0.0230213887
    3      C      -0.3740925575    -0.8154619320    -0.6664152438
    4      C      -1.0841097988     0.5939056249     0.8321597578
    5      C      -0.5976860110     1.0789705807    -0.4951984392
    6      N       0.7456225160     1.5268327669    -0.5262293052
    7      H       2.6265693113     0.7586186251    -0.1675103858
    8      H       1.6233533097    -1.6095721944     0.0017706240
    9      H      -0.6475247665    -1.7196105056    -1.2191833801
   10      H      -2.0698685336     0.8589543452     1.2139233400
   11      H      -1.2574290957     1.7604615853    -1.0403945592
   12      C      -0.5701227213    -0.7452882385     0.8141599252
   13      H      -0.9452526929    -1.5518108209     1.4381409635
 ----------------------------------------------------------------

    2    -286.8012429349      2.07E-09 Convergence criterion met
 Total energy in the final basis set = -286.80124293

                    Orbital Energies (a.u.)
 --------------------------------------------------------------

 Alpha MOs
 -- Occupied --
-14.319 -10.234 -10.221 -10.219 -10.216 -10.213 -10.197  -0.953
 -0.854  -0.757  -0.654  -0.627  -0.556  -0.536  -0.508  -0.458
 -0.437  -0.408  -0.408  -0.362  -0.347  -0.281  -0.269  -0.246
 -0.177

 Beta MOs
 -- Occupied --
-14.318 -10.235 -10.222 -10.220 -10.214 -10.208 -10.185  -0.950
 -0.847  -0.747  -0.646  -0.623  -0.550  -0.533  -0.497  -0.455
 -0.433  -0.404  -0.399  -0.357  -0.332  -0.278  -0.261  -0.242

          Ground-State Mulliken Net Atomic Charges

     Atom                 Charge (a.u.)    Spin (a.u.)
  --------------------------------------------------------
      1 C                     0.107054      -0.018189
      2 C                    -0.209697       0.082102
      3 C                    -0.148005       0.211583
      4 C                    -0.055568       0.869318
      5 C                    -0.075855      -0.088265
      6 N                    -0.337331       0.035056
      7 H                     0.145257       0.002902
      8 H                     0.148848       0.009610
      9 H                     0.144129       0.018628
     10 H                     0.145596      -0.042195
     11 H                     0.141376       0.011930
     12 C                    -0.158762      -0.093815
     13 H                     0.152956       0.001334
  --------------------------------------------------------
  Sum of atomic charges =    -0.000000

                    Cartesian Multipole Moments
 -----------------------------------------------------------------
    Charge (ESU x 10^10)
                -0.0000
    Dipole Moment (Debye)
         X      -0.6622      Y      -2.3914      Z       0.4191
       Tot       2.5165
    Quadrupole Moments (Debye-Ang)
        XX     -36.2809     XY      -2.6460     YY     -42.1732
        XZ      -0.3845     YZ       0.5325     ZZ     -42.3189

 Frequency:      -461.08                -266.42                 380.27
 Force Cnst:      0.4865                 0.1051                 0.2185
 Red. Mass:       3.8843                 2.5124                 2.5640
 IR Intens:       44.022                 18.567                 11.406
 Frequency:       386.49                 522.59                 617.21
 Force Cnst:      0.2743                 0.4008                 1.1372
 Red. Mass:       3.1170                 2.4908                 5.0664
 IR Intens:       14.416                  5.795                  8.849
 Frequency:       662.13                 753.53                 853.25
 Force Cnst:      1.5174                 0.9405                 1.3772
 Red. Mass:       5.8742                 2.8113                 3.2106
 IR Intens:        4.795                 21.368                 14.767
 Frequency:       880.60                 901.98                 939.46
 Force Cnst:      0.6144                 0.6667                 0.7102
 Red. Mass:       1.3448                 1.3908                 1.3658
 IR Intens:        2.159                  6.814                  1.425
 Frequency:       956.83                 985.12                1011.94
 Force Cnst:      1.2815                 1.2519                 0.9416
 Red. Mass:       2.3757                 2.1895                 1.5607
 IR Intens:        3.836                 20.176                  8.584
 Frequency:      1041.31                1049.84                1086.66
 Force Cnst:      1.0190                 0.9506                 1.2160
 Red. Mass:       1.5949                 1.4639                 1.7479
 IR Intens:       39.961                  8.455                  7.450
 Frequency:      1103.26                1142.25                1162.06
 Force Cnst:      1.2924                 1.6167                 1.7497
 Red. Mass:       1.8022                 2.1031                 2.1992
 IR Intens:        8.784                  9.172                  9.445
 Frequency:      1289.04                1312.30                1360.38
 Force Cnst:      1.3837                 1.8974                 1.7120
 Red. Mass:       1.4134                 1.8700                 1.5701
 IR Intens:        1.944                  7.651                 13.865
 Frequency:      1383.81                1406.83                1673.56
 Force Cnst:      2.2812                 2.2285                11.9906
 Red. Mass:       2.0219                 1.9111                 7.2662
 IR Intens:       32.643                  3.780                 29.546
 Frequency:      3063.89                3103.62                3117.43
 Force Cnst:      6.0267                 6.1934                 6.2318
 Red. Mass:       1.0896                 1.0913                 1.0884
 IR Intens:       10.800                 24.432                 32.289
 Frequency:      3162.83                3173.98                3203.96
 Force Cnst:      6.4448                 6.4641                 6.6276
 Red. Mass:       1.0935                 1.0891                 1.0958
 IR Intens:       27.681                  9.576                 10.744

 STANDARD THERMODYNAMIC QUANTITIES AT   298.15 K  AND     1.00 ATM

   This Molecule has  2 Imaginary Frequencies
   Zero point vibrational energy:       62.456 kcal/mol

   Atom    1 Element C  Has Mass   12.00000
   Atom    2 Element C  Has Mass   12.00000
   Atom    3 Element C  Has Mass   12.00000
   Atom    4 Element C  Has Mass   12.00000
   Atom    5 Element C  Has Mass   12.00000
   Atom    6 Element N  Has Mass   14.00307
   Atom    7 Element H  Has Mass    1.00783
   Atom    8 Element H  Has Mass    1.00783
   Atom    9 Element H  Has Mass    1.00783
   Atom   10 Element H  Has Mass    1.00783
   Atom   11 Element H  Has Mass    1.00783
   Atom   12 Element C  Has Mass   12.00000
   Atom   13 Element H  Has Mass    1.00783
   Molecular Mass:    92.050050 amu
   Principal axes and moments of inertia in amu*Bohr^2:
                             1           2           3
    Eigenvalues --      369.92038   460.37915   648.23344
          X               0.74823    -0.59312     0.29726
          Y               0.56557     0.80447     0.18153
          Z              -0.34680     0.03229     0.93738
   Rotational Symmetry Number is   1
   The Molecule is an Asymmetric Top
   Translational Enthalpy:        0.889 kcal/mol
   Rotational Enthalpy:           0.889 kcal/mol
   Vibrational Enthalpy:         63.569 kcal/mol
   gas constant (RT):             0.592 kcal/mol
   Translational Entropy:        39.471  cal/mol.K
   Rotational Entropy:           26.204  cal/mol.K
   Vibrational Entropy:           5.058  cal/mol.K

   Total Enthalpy:               65.939 kcal/mol
   Total Entropy:                70.733  cal/mol.K

 Total job time:  259.61s(wall), 258.16s(cpu)
        *  Thank you very much for using Q-Chem.  Have a nice day.  *
