 Q-Chem 5.0, Q-Chem, Inc., Pleasanton, CA (2017)
 Q-Chem 5.0.2 for Intel X86 EM64T Linux

User input:
--------------------------------------------------------------
$molecule
0 2
C        1.5242525169    0.5611410695   -0.2076460420
C        0.8977742156   -0.7595770098   -0.0565787793
C       -0.4034370768   -0.9101089009   -0.7270610360
C       -1.0953380242    0.5880613877    0.7501871306
C       -0.6208932951    1.1945920244   -0.4740945528
N        0.7441875091    1.5314265462   -0.5270957016
H        2.5813416712    0.7361930220   -0.0184453737
H        1.5245161516   -1.6358871683    0.0999786775
H       -0.7472227254   -1.7585131259   -1.3159934980
H       -2.0632745165    0.7994277204    1.1904733935
H       -1.2642430577    1.8494491824   -1.0584933318
C       -0.4770274981   -0.7253915717    0.7739489380
H       -0.6458109523   -1.4855619488    1.5311550788
$end

$rem
method                b3lyp
basis                 6-31+g(d,p)
unrestricted          true
symmetry              off
sym_ignore            true
incdft                false
incfock               0
scf_convergence       8
thresh                14
jobtype               freq
scf_guess             read
scf_algorithm         diis
max_scf_cycles        100
$end

--------------------------------------------------------------

             Standard Nuclear Orientation (Angstroms)
    I     Atom           X                Y                Z
 ----------------------------------------------------------------
    1      C       1.5242525169     0.5611410695    -0.2076460420
    2      C       0.8977742156    -0.7595770098    -0.0565787793
    3      C      -0.4034370768    -0.9101089009    -0.7270610360
    4      C      -1.0953380242     0.5880613877     0.7501871306
    5      C      -0.6208932951     1.1945920244    -0.4740945528
    6      N       0.7441875091     1.5314265462    -0.5270957016
    7      H       2.5813416712     0.7361930220    -0.0184453737
    8      H       1.5245161516    -1.6358871683     0.0999786775
    9      H      -0.7472227254    -1.7585131259    -1.3159934980
   10      H      -2.0632745165     0.7994277204     1.1904733935
   11      H      -1.2642430577     1.8494491824    -1.0584933318
   12      C      -0.4770274981    -0.7253915717     0.7739489380
   13      H      -0.6458109523    -1.4855619488     1.5311550788
 ----------------------------------------------------------------

    2    -286.8277708042      5.72E-10 Convergence criterion met
 Total energy in the final basis set = -286.82777080

                    Orbital Energies (a.u.)
 --------------------------------------------------------------

 Alpha MOs
 -- Occupied --
-14.341 -10.244 -10.236 -10.226 -10.224 -10.219 -10.210  -0.965
 -0.871  -0.772  -0.664  -0.634  -0.578  -0.543  -0.511  -0.477
 -0.454  -0.431  -0.416  -0.369  -0.349  -0.292  -0.284  -0.256
 -0.181

 Beta MOs
 -- Occupied --
-14.341 -10.246 -10.237 -10.227 -10.223 -10.209 -10.200  -0.962
 -0.864  -0.763  -0.655  -0.632  -0.568  -0.540  -0.504  -0.472
 -0.451  -0.428  -0.407  -0.367  -0.332  -0.292  -0.282  -0.239

          Ground-State Mulliken Net Atomic Charges

     Atom                 Charge (a.u.)    Spin (a.u.)
  --------------------------------------------------------
      1 C                    -0.065323      -0.051222
      2 C                    -0.070052      -0.014797
      3 C                    -0.264434       0.545284
      4 C                    -0.000250       0.755042
      5 C                    -0.135440      -0.198389
      6 N                    -0.149713       0.039667
      7 H                     0.134123       0.002582
      8 H                     0.142321       0.021213
      9 H                     0.129344       0.011844
     10 H                     0.141459      -0.036365
     11 H                     0.127290       0.010717
     12 C                    -0.129480      -0.086995
     13 H                     0.140156       0.001419
  --------------------------------------------------------
  Sum of atomic charges =    -0.000000

                    Cartesian Multipole Moments
 -----------------------------------------------------------------
    Charge (ESU x 10^10)
                -0.0000
    Dipole Moment (Debye)
         X      -0.4380      Y      -2.3911      Z       0.7711
       Tot       2.5503
    Quadrupole Moments (Debye-Ang)
        XX     -37.5374     XY      -3.2480     YY     -43.7774
        XZ       0.4185     YZ       0.0345     ZZ     -43.2565

 Frequency:      -620.80                 333.37                 405.58
 Force Cnst:      0.9929                 0.0914                 0.2908
 Red. Mass:       4.3728                 1.3959                 3.0008
 IR Intens:       28.110                 43.746                  5.285
 Frequency:       490.77                 561.47                 597.72
 Force Cnst:      0.6743                 1.0094                 0.7104
 Red. Mass:       4.7519                 5.4343                 3.3749
 IR Intens:        3.193                  7.750                  8.369
 Frequency:       623.89                 733.11                 793.64
 Force Cnst:      1.1791                 0.9173                 0.4890
 Red. Mass:       5.1414                 2.8967                 1.3176
 IR Intens:       16.379                 29.515                  1.593
 Frequency:       833.07                 858.01                 903.14
 Force Cnst:      0.5937                 1.4062                 0.7139
 Red. Mass:       1.4519                 3.2420                 1.4854
 IR Intens:       12.889                 26.333                 20.851
 Frequency:       943.82                 954.73                 959.40
 Force Cnst:      1.0515                 0.9858                 0.9652
 Red. Mass:       2.0035                 1.8356                 1.7799
 IR Intens:        6.563                 17.685                 26.865
 Frequency:      1022.75                1031.20                1051.54
 Force Cnst:      1.0501                 0.9114                 1.1360
 Red. Mass:       1.7039                 1.4546                 1.7437
 IR Intens:       11.545                  6.800                  5.305
 Frequency:      1067.82                1120.12                1147.89
 Force Cnst:      1.2639                 1.2938                 1.4633
 Red. Mass:       1.8813                 1.7502                 1.8849
 IR Intens:        7.465                 18.638                 15.473
 Frequency:      1296.93                1321.75                1355.29
 Force Cnst:      1.3247                 2.6737                 1.6759
 Red. Mass:       1.3367                 2.5975                 1.5485
 IR Intens:        3.670                  9.869                 16.161
 Frequency:      1365.33                1406.95                1643.84
 Force Cnst:      2.6677                 2.0501                11.6283
 Red. Mass:       2.4289                 1.7578                 7.3037
 IR Intens:       35.151                  7.665                 31.628
 Frequency:      3145.17                3156.56                3170.19
 Force Cnst:      6.3391                 6.4128                 6.4508
 Red. Mass:       1.0877                 1.0924                 1.0894
 IR Intens:       13.893                 12.719                 18.108
 Frequency:      3182.81                3185.31                3221.91
 Force Cnst:      6.5232                 6.5358                 6.6871
 Red. Mass:       1.0929                 1.0933                 1.0934
 IR Intens:       17.520                 20.326                  4.262

 STANDARD THERMODYNAMIC QUANTITIES AT   298.15 K  AND     1.00 ATM

   This Molecule has  1 Imaginary Frequencies
   Zero point vibrational energy:       62.737 kcal/mol

   Atom    1 Element C  Has Mass   12.00000
   Atom    2 Element C  Has Mass   12.00000
   Atom    3 Element C  Has Mass   12.00000
   Atom    4 Element C  Has Mass   12.00000
   Atom    5 Element C  Has Mass   12.00000
   Atom    6 Element N  Has Mass   14.00307
   Atom    7 Element H  Has Mass    1.00783
   Atom    8 Element H  Has Mass    1.00783
   Atom    9 Element H  Has Mass    1.00783
   Atom   10 Element H  Has Mass    1.00783
   Atom   11 Element H  Has Mass    1.00783
   Atom   12 Element C  Has Mass   12.00000
   Atom   13 Element H  Has Mass    1.00783
   Molecular Mass:    92.050050 amu
   Principal axes and moments of inertia in amu*Bohr^2:
                             1           2           3
    Eigenvalues --      384.81686   451.58812   646.89273
          X               0.61906     0.73632     0.27312
          Y               0.72581    -0.66924     0.15912
          Z              -0.29994    -0.09973     0.94873
   Rotational Symmetry Number is   1
   The Molecule is an Asymmetric Top
   Translational Enthalpy:        0.889 kcal/mol
   Rotational Enthalpy:           0.889 kcal/mol
   Vibrational Enthalpy:         64.069 kcal/mol
   gas constant (RT):             0.592 kcal/mol
   Translational Entropy:        39.471  cal/mol.K
   Rotational Entropy:           26.222  cal/mol.K
   Vibrational Entropy:           6.101  cal/mol.K

   Total Enthalpy:               66.439 kcal/mol
   Total Entropy:                71.794  cal/mol.K

 Total job time:  549.47s(wall), 548.00s(cpu)
        *  Thank you very much for using Q-Chem.  Have a nice day.  *
