 Q-Chem 5.0, Q-Chem, Inc., Pleasanton, CA (2017)
 Q-Chem 5.0.2 for Intel X86 EM64T Linux

User input:
--------------------------------------------------------------
$molecule
0 2
C        1.5227237216    0.5612638217   -0.2105959865
C        0.8947581597   -0.7590830577   -0.0565425624
C       -0.4074602829   -0.9093736739   -0.7265730112
C       -1.0906061341    0.5938093405    0.7554576156
C       -0.6184536340    1.1961592046   -0.4696770917
N        0.7465481530    1.5339415713   -0.5244516038
H        2.5815511194    0.7334544658   -0.0228222930
H        1.5212175144   -1.6361045016    0.0992428788
H       -0.7456139353   -1.7641418090   -1.3108209860
H       -2.0718895966    0.7878950702    1.1747911503
H       -1.2615151950    1.8540600227   -1.0527917270
C       -0.4751967505   -0.7239370299    0.7724063173
H       -0.6412382214   -1.4826921974    1.5327122027
$end

$rem
method                b3lyp
basis                 6-31+g(d,p)
unrestricted          true
symmetry              off
sym_ignore            true
incdft                false
incfock               0
scf_convergence       8
thresh                14
jobtype               freq
scf_guess             read
scf_algorithm         diis
max_scf_cycles        100
$end

--------------------------------------------------------------

             Standard Nuclear Orientation (Angstroms)
    I     Atom           X                Y                Z
 ----------------------------------------------------------------
    1      C       1.5227237216     0.5612638217    -0.2105959865
    2      C       0.8947581597    -0.7590830577    -0.0565425624
    3      C      -0.4074602829    -0.9093736739    -0.7265730112
    4      C      -1.0906061341     0.5938093405     0.7554576156
    5      C      -0.6184536340     1.1961592046    -0.4696770917
    6      N       0.7465481530     1.5339415713    -0.5244516038
    7      H       2.5815511194     0.7334544658    -0.0228222930
    8      H       1.5212175144    -1.6361045016     0.0992428788
    9      H      -0.7456139353    -1.7641418090    -1.3108209860
   10      H      -2.0718895966     0.7878950702     1.1747911503
   11      H      -1.2615151950     1.8540600227    -1.0527917270
   12      C      -0.4751967505    -0.7239370299     0.7724063173
   13      H      -0.6412382214    -1.4826921974     1.5327122027
 ----------------------------------------------------------------

    2    -286.8277271632      1.47E-09 Convergence criterion met
 Total energy in the final basis set = -286.82772716

                    Orbital Energies (a.u.)
 --------------------------------------------------------------

 Alpha MOs
 -- Occupied --
-14.341 -10.244 -10.236 -10.226 -10.223 -10.219 -10.210  -0.966
 -0.872  -0.772  -0.664  -0.634  -0.578  -0.543  -0.511  -0.477
 -0.454  -0.431  -0.415  -0.368  -0.350  -0.292  -0.285  -0.257
 -0.182

 Beta MOs
 -- Occupied --
-14.341 -10.247 -10.237 -10.227 -10.223 -10.209 -10.200  -0.963
 -0.865  -0.763  -0.655  -0.632  -0.568  -0.540  -0.503  -0.472
 -0.451  -0.428  -0.406  -0.366  -0.333  -0.293  -0.282  -0.240

          Ground-State Mulliken Net Atomic Charges

     Atom                 Charge (a.u.)    Spin (a.u.)
  --------------------------------------------------------
      1 C                    -0.063015      -0.054135
      2 C                    -0.070659      -0.016593
      3 C                    -0.267397       0.545242
      4 C                    -0.005567       0.759021
      5 C                    -0.131326      -0.198890
      6 N                    -0.150134       0.038951
      7 H                     0.133847       0.002637
      8 H                     0.142468       0.020738
      9 H                     0.129410       0.012771
     10 H                     0.140919      -0.036195
     11 H                     0.127399       0.010369
     12 C                    -0.126064      -0.085132
     13 H                     0.140119       0.001217
  --------------------------------------------------------
  Sum of atomic charges =     0.000000

                    Cartesian Multipole Moments
 -----------------------------------------------------------------
    Charge (ESU x 10^10)
                 0.0000
    Dipole Moment (Debye)
         X      -0.4271      Y      -2.3943      Z       0.7475
       Tot       2.5444
    Quadrupole Moments (Debye-Ang)
        XX     -37.5289     XY      -3.2379     YY     -43.7738
        XZ       0.4210     YZ      -0.0098     ZZ     -43.3139

 Frequency:      -620.83                 349.30                 408.72
 Force Cnst:      1.0005                 0.1076                 0.2704
 Red. Mass:       4.4059                 1.4968                 2.7469
 IR Intens:       28.983                 42.018                  8.387
 Frequency:       496.06                 566.06                 603.55
 Force Cnst:      0.6417                 1.0943                 0.7685
 Red. Mass:       4.4257                 5.7963                 3.5808
 IR Intens:        2.224                  6.327                  8.330
 Frequency:       629.31                 735.15                 798.25
 Force Cnst:      1.0841                 0.9475                 0.5009
 Red. Mass:       4.6460                 2.9757                 1.3341
 IR Intens:       18.925                 29.212                  2.185
 Frequency:       835.54                 860.77                 908.35
 Force Cnst:      0.5973                 1.3384                 0.7294
 Red. Mass:       1.4520                 3.0660                 1.5005
 IR Intens:       14.099                 26.512                 20.129
 Frequency:       946.25                 959.95                 962.46
 Force Cnst:      1.1322                 1.0444                 0.8817
 Red. Mass:       2.1462                 1.9236                 1.6155
 IR Intens:        6.968                  8.784                 35.208
 Frequency:      1026.15                1033.42                1054.25
 Force Cnst:      1.0402                 0.9130                 1.1609
 Red. Mass:       1.6766                 1.4509                 1.7728
 IR Intens:       11.700                  7.309                  5.012
 Frequency:      1070.52                1123.14                1149.96
 Force Cnst:      1.2488                 1.2953                 1.4719
 Red. Mass:       1.8495                 1.7428                 1.8892
 IR Intens:        7.571                 18.370                 15.933
 Frequency:      1299.77                1323.86                1357.91
 Force Cnst:      1.3293                 2.7317                 1.6832
 Red. Mass:       1.3355                 2.6455                 1.5493
 IR Intens:        3.380                 10.043                 16.195
 Frequency:      1366.61                1408.56                1653.54
 Force Cnst:      2.6256                 2.0238                11.9150
 Red. Mass:       2.3861                 1.7313                 7.3963
 IR Intens:       35.003                  8.244                 32.042
 Frequency:      3139.94                3151.77                3160.98
 Force Cnst:      6.3220                 6.3868                 6.4138
 Red. Mass:       1.0883                 1.0912                 1.0895
 IR Intens:       14.995                 10.884                 18.898
 Frequency:      3173.91                3177.85                3216.45
 Force Cnst:      6.4899                 6.5050                 6.6622
 Red. Mass:       1.0935                 1.0933                 1.0930
 IR Intens:       18.469                 21.539                  4.767

 STANDARD THERMODYNAMIC QUANTITIES AT   298.15 K  AND     1.00 ATM

   This Molecule has  1 Imaginary Frequencies
   Zero point vibrational energy:       62.827 kcal/mol

   Atom    1 Element C  Has Mass   12.00000
   Atom    2 Element C  Has Mass   12.00000
   Atom    3 Element C  Has Mass   12.00000
   Atom    4 Element C  Has Mass   12.00000
   Atom    5 Element C  Has Mass   12.00000
   Atom    6 Element N  Has Mass   14.00307
   Atom    7 Element H  Has Mass    1.00783
   Atom    8 Element H  Has Mass    1.00783
   Atom    9 Element H  Has Mass    1.00783
   Atom   10 Element H  Has Mass    1.00783
   Atom   11 Element H  Has Mass    1.00783
   Atom   12 Element C  Has Mass   12.00000
   Atom   13 Element H  Has Mass    1.00783
   Molecular Mass:    92.050050 amu
   Principal axes and moments of inertia in amu*Bohr^2:
                             1           2           3
    Eigenvalues --      384.24580   451.49813   646.57142
          X               0.61485     0.73917     0.27493
          Y               0.73009    -0.66531     0.15597
          Z              -0.29820    -0.10483     0.94873
   Rotational Symmetry Number is   1
   The Molecule is an Asymmetric Top
   Translational Enthalpy:        0.889 kcal/mol
   Rotational Enthalpy:           0.889 kcal/mol
   Vibrational Enthalpy:         64.133 kcal/mol
   gas constant (RT):             0.592 kcal/mol
   Translational Entropy:        39.471  cal/mol.K
   Rotational Entropy:           26.220  cal/mol.K
   Vibrational Entropy:           5.951  cal/mol.K

   Total Enthalpy:               66.502 kcal/mol
   Total Entropy:                71.642  cal/mol.K

 Total job time:  551.02s(wall), 548.70s(cpu)
        *  Thank you very much for using Q-Chem.  Have a nice day.  *
