 Q-Chem 5.0, Q-Chem, Inc., Pleasanton, CA (2017)
 Q-Chem 5.0.2 for Intel X86 EM64T Linux

User input:
--------------------------------------------------------------
$molecule
0 2
C        1.5769931546    0.4217774915   -0.1549896571
C        0.8158058667   -0.8235355347    0.1103114408
C       -0.5519786044   -0.9766209081   -0.5325502196
C       -1.1156922764    0.3314744816    0.0000518424
C       -0.3591195862    1.5762163585   -0.2744746369
N        0.9707818556    1.5927105278   -0.3425084205
H        2.6642519178    0.4004767624   -0.2058092217
H        1.3911211162   -1.7381615689    0.2460841395
H       -0.9905227441   -1.7639841934   -1.1300198649
H       -2.2008368453    0.4107357891    0.0431382743
H       -0.8872456497    2.5136200593   -0.4391304404
C       -0.4776849850   -0.7129891716    0.9008822705
H       -0.8358732199   -1.2317200934    1.7790144936
$end

$rem
method                b3lyp
basis                 6-31g(d)
unrestricted          true
symmetry              off
sym_ignore            true
incdft                false
incfock               0
scf_convergence       8
thresh                14
jobtype               opt
scf_guess             read
scf_algorithm         diis
max_scf_cycles        100
geom_opt_tol_gradient 600
geom_opt_tol_displacement 2400
geom_opt_tol_energy   200
geom_opt_max_cycles   100
$end

--------------------------------------------------------------

    2    -286.8584658956      8.83E-10 Convergence criterion met
 Total energy in the final basis set = -286.85846590
   10    -286.8584720586      6.01E-09 Convergence criterion met
 Total energy in the final basis set = -286.85847206

             Standard Nuclear Orientation (Angstroms)
    I     Atom           X                Y                Z
 ----------------------------------------------------------------
    1      C       1.5767529371     0.4210683893    -0.1582947354
    2      C       0.8156387232    -0.8228408565     0.1099548360
    3      C      -0.5524921534    -0.9779638049    -0.5327366812
    4      C      -1.1160445176     0.3308211826    -0.0026796842
    5      C      -0.3588498110     1.5756860540    -0.2755855653
    6      N       0.9708353262     1.5919442163    -0.3458574922
    7      H       2.6637723049     0.3999427443    -0.2052682882
    8      H       1.3921601784    -1.7360452265     0.2481578232
    9      H      -0.9896302411    -1.7672681067    -1.1282711813
   10      H      -2.2010758288     0.4093596690     0.0394174005
   11      H      -0.8856962702     2.5157125332    -0.4280759807
   12      C      -0.4781432976    -0.7118065288     0.9000769031
   13      H      -0.8372273502    -1.2286102653     1.7791626455
 ----------------------------------------------------------------

    9    -286.8584730863      8.93E-09 Convergence criterion met
 Total energy in the final basis set = -286.85847309
 Final energy is   -286.858473086292
 **  OPTIMIZATION CONVERGED  **

                    Orbital Energies (a.u.)
 --------------------------------------------------------------

 Alpha MOs
 -- Occupied --
-14.317 -10.216 -10.216 -10.215 -10.215 -10.215 -10.215  -0.960
 -0.896  -0.750  -0.643  -0.635  -0.589  -0.545  -0.482  -0.471
 -0.465  -0.408  -0.395  -0.365  -0.338  -0.299  -0.298  -0.227
 -0.173

 Beta MOs
 -- Occupied --
-14.320 -10.216 -10.216 -10.213 -10.213 -10.207 -10.207  -0.955
 -0.894  -0.738  -0.631  -0.630  -0.584  -0.542  -0.476  -0.466
 -0.464  -0.405  -0.377  -0.362  -0.323  -0.298  -0.294  -0.227

          Ground-State Mulliken Net Atomic Charges

     Atom                 Charge (a.u.)    Spin (a.u.)
  --------------------------------------------------------
      1 C                     0.076363       0.597250
      2 C                    -0.221103      -0.053289
      3 C                    -0.089905       0.094643
      4 C                    -0.221046      -0.053331
      5 C                     0.076600       0.597222
      6 N                    -0.395195      -0.205389
      7 H                     0.135619      -0.032055
      8 H                     0.142098       0.000516
      9 H                     0.154205      -0.004288
     10 H                     0.142143       0.000518
     11 H                     0.135565      -0.032055
     12 C                    -0.089551       0.094542
     13 H                     0.154206      -0.004284
  --------------------------------------------------------
  Sum of atomic charges =    -0.000000

                    Cartesian Multipole Moments
 -----------------------------------------------------------------
    Charge (ESU x 10^10)
                 0.0000
    Dipole Moment (Debye)
         X      -1.5274      Y      -2.5049      Z       0.5440
       Tot       2.9838
    Quadrupole Moments (Debye-Ang)
        XX     -37.8475     XY      -3.6678     YY     -41.7554
        XZ       0.5159     YZ       0.2741     ZZ     -41.3493

 Total job time:  62.68s(wall), 82.89s(cpu)
        *  Thank you very much for using Q-Chem.  Have a nice day.  *
