 Q-Chem 5.0, Q-Chem, Inc., Pleasanton, CA (2017)
 Q-Chem 5.0.2 for Intel X86 EM64T Linux

User input:
--------------------------------------------------------------
$molecule
0 2
C        1.1178816176    0.1496732200    0.5078923084
C        0.8410399622   -0.9836808585   -0.4922563429
C       -0.4767995815   -0.9588212516   -0.7513953835
C       -1.0712903975    0.1924421950    0.0847386178
C       -0.3802261137    1.4743468529   -0.4231877913
N        0.8763431445    1.4746647680   -0.1993402548
H        2.0814603827    0.1375130918    1.0150922173
H        1.5945333514   -1.6384525231   -0.9159342738
H       -1.0402832101   -1.5826395305   -1.4365990980
H       -2.1552406665    0.2135579672    0.1985264587
H       -0.8832598954    2.2891462779   -0.9412116041
C       -0.1689677260    0.0093921697    1.3096402405
H       -0.3351908680   -0.7771423788    2.0440349056
$end

$rem
method                b3lyp
basis                 6-31g(d)
unrestricted          true
symmetry              off
sym_ignore            true
incdft                false
incfock               0
scf_convergence       8
thresh                14
jobtype               opt
scf_guess             read
scf_algorithm         diis
max_scf_cycles        100
geom_opt_tol_gradient 600
geom_opt_tol_displacement 2400
geom_opt_tol_energy   200
geom_opt_max_cycles   100
$end

--------------------------------------------------------------

    2    -286.8516537540      5.87E-10 Convergence criterion met
 Total energy in the final basis set = -286.85165375

             Standard Nuclear Orientation (Angstroms)
    I     Atom           X                Y                Z
 ----------------------------------------------------------------
    1      C       1.1175173994     0.1502436314     0.5068634845
    2      C       0.8412511459    -0.9842005957    -0.4919014579
    3      C      -0.4756967150    -0.9578740103    -0.7530333885
    4      C      -1.0709649590     0.1922510421     0.0844227438
    5      C      -0.3807406294     1.4746403274    -0.4228748995
    6      N       0.8761826491     1.4739071081    -0.2030415288
    7      H       2.0809360728     0.1373665172     1.0143519154
    8      H       1.5944106407    -1.6412013001    -0.9127513732
    9      H      -1.0389186221    -1.5826335459    -1.4376752308
   10      H      -2.1547821519     0.2133358329     0.1988256209
   11      H      -0.8845330164     2.2912592424    -0.9373191716
   12      C      -0.1694123768     0.0097865153     1.3099056503
   13      H      -0.3352494378    -0.7768807649     2.0442276354
 ----------------------------------------------------------------

   11    -286.8516551755      9.44E-09 Convergence criterion met
 Total energy in the final basis set = -286.85165518
 Final energy is   -286.851655175481
 **  OPTIMIZATION CONVERGED  **

                    Orbital Energies (a.u.)
 --------------------------------------------------------------

 Alpha MOs
 -- Occupied --
-14.322 -10.224 -10.220 -10.210 -10.204 -10.201 -10.197  -0.952
 -0.821  -0.726  -0.705  -0.579  -0.573  -0.531  -0.512  -0.472
 -0.418  -0.410  -0.381  -0.373  -0.348  -0.294  -0.271  -0.258
 -0.196

 Beta MOs
 -- Occupied --
-14.321 -10.224 -10.221 -10.210 -10.200 -10.196 -10.190  -0.949
 -0.815  -0.725  -0.690  -0.577  -0.561  -0.527  -0.509  -0.463
 -0.414  -0.406  -0.379  -0.369  -0.342  -0.287  -0.261  -0.255

          Ground-State Mulliken Net Atomic Charges

     Atom                 Charge (a.u.)    Spin (a.u.)
  --------------------------------------------------------
      1 C                    -0.094586      -0.045005
      2 C                    -0.087799       0.039930
      3 C                    -0.095934       0.079781
      4 C                    -0.245993      -0.043972
      5 C                     0.092389      -0.008891
      6 N                    -0.325254       0.022060
      7 H                     0.139771       0.003026
      8 H                     0.146098       0.000898
      9 H                     0.145534       0.000306
     10 H                     0.133903       0.002852
     11 H                     0.149626      -0.000168
     12 C                    -0.096683       0.975728
     13 H                     0.138929      -0.026544
  --------------------------------------------------------
  Sum of atomic charges =    -0.000000

                    Cartesian Multipole Moments
 -----------------------------------------------------------------
    Charge (ESU x 10^10)
                -0.0000
    Dipole Moment (Debye)
         X      -1.4920      Y      -1.8337      Z      -0.2184
       Tot       2.3741
    Quadrupole Moments (Debye-Ang)
        XX     -38.5737     XY      -4.2068     YY     -42.4441
        XZ       1.8749     YZ      -0.0064     ZZ     -40.4601

 Total job time:  17.08s(wall), 51.12s(cpu)
        *  Thank you very much for using Q-Chem.  Have a nice day.  *
