 Q-Chem 5.0, Q-Chem, Inc., Pleasanton, CA (2017)
 Q-Chem 5.0.2 for Intel X86 EM64T Linux

User input:
--------------------------------------------------------------
$molecule
0 2
C        1.1893926159    0.3430764776    0.3777913106
C        0.6800432118   -1.0758653121   -0.1480580577
C       -0.5789747398   -0.9376362397   -0.8669185161
C       -1.0854324972    0.1294817327    0.1011401553
C       -0.5151694572    1.4384556318   -0.4320088713
N        0.7601117139    1.5284140858   -0.3209985905
H        2.1945874409    0.3386340181    0.7868700052
H        1.3975352713   -1.8895521398   -0.1863027082
H       -0.8645810205   -1.1589580651   -1.8926131035
H       -2.1340940856    0.1182411963    0.4063361366
H       -1.0953308714    2.1771220573   -0.9829099466
C        0.0639774128   -0.3473223776    1.0609130531
H       -0.0120649950   -0.6640910652    2.0967591331
$end

$rem
method                b3lyp
basis                 6-31g(d)
unrestricted          true
symmetry              off
sym_ignore            true
incdft                false
incfock               0
scf_convergence       8
thresh                14
jobtype               opt
scf_guess             read
scf_algorithm         diis
max_scf_cycles        100
geom_opt_tol_gradient 600
geom_opt_tol_displacement 2400
geom_opt_tol_energy   200
geom_opt_max_cycles   100
$end

--------------------------------------------------------------

             Standard Nuclear Orientation (Angstroms)
    I     Atom           X                Y                Z
 ----------------------------------------------------------------
    1      C       1.1893926159     0.3430764776     0.3777913106
    2      C       0.6800432118    -1.0758653121    -0.1480580577
    3      C      -0.5789747398    -0.9376362397    -0.8669185161
    4      C      -1.0854324972     0.1294817327     0.1011401553
    5      C      -0.5151694572     1.4384556318    -0.4320088713
    6      N       0.7601117139     1.5284140858    -0.3209985905
    7      H       2.1945874409     0.3386340181     0.7868700052
    8      H       1.3975352713    -1.8895521398    -0.1863027082
    9      H      -0.8645810205    -1.1589580651    -1.8926131035
   10      H      -2.1340940856     0.1182411963     0.4063361366
   11      H      -1.0953308714     2.1771220573    -0.9829099466
   12      C       0.0639774128    -0.3473223776     1.0609130531
   13      H      -0.0120649950    -0.6640910652     2.0967591331
 ----------------------------------------------------------------

    2    -286.8383242969      2.84E-09 Convergence criterion met
 Total energy in the final basis set = -286.83832430
 Final energy is   -286.838324296879
 **  OPTIMIZATION CONVERGED  **

                    Orbital Energies (a.u.)
 --------------------------------------------------------------

 Alpha MOs
 -- Occupied --
-14.320 -10.224 -10.220 -10.210 -10.209 -10.208 -10.206  -0.968
 -0.856  -0.749  -0.664  -0.606  -0.571  -0.535  -0.516  -0.467
 -0.439  -0.405  -0.400  -0.356  -0.336  -0.298  -0.273  -0.256
 -0.182

 Beta MOs
 -- Occupied --
-14.319 -10.222 -10.219 -10.211 -10.209 -10.207 -10.193  -0.964
 -0.850  -0.741  -0.652  -0.601  -0.567  -0.528  -0.511  -0.461
 -0.434  -0.403  -0.393  -0.348  -0.332  -0.292  -0.262  -0.250

          Ground-State Mulliken Net Atomic Charges

     Atom                 Charge (a.u.)    Spin (a.u.)
  --------------------------------------------------------
      1 C                    -0.019129       0.097114
      2 C                    -0.163341      -0.095945
      3 C                    -0.066209       0.888279
      4 C                    -0.258174      -0.065712
      5 C                     0.088692       0.047085
      6 N                    -0.342259       0.039285
      7 H                     0.151435       0.002849
      8 H                     0.147215       0.005282
      9 H                     0.136249      -0.019364
     10 H                     0.142842       0.022699
     11 H                     0.143033       0.001385
     12 C                    -0.108420       0.077818
     13 H                     0.148064      -0.000774
  --------------------------------------------------------
  Sum of atomic charges =    -0.000000

                    Cartesian Multipole Moments
 -----------------------------------------------------------------
    Charge (ESU x 10^10)
                -0.0000
    Dipole Moment (Debye)
         X      -1.1304      Y      -1.5437      Z       0.7352
       Tot       2.0497
    Quadrupole Moments (Debye-Ang)
        XX     -38.5170     XY      -4.6532     YY     -43.7988
        XZ       2.2504     YZ       0.2914     ZZ     -39.0030

 Total job time:  4.18s(wall), 14.63s(cpu)
        *  Thank you very much for using Q-Chem.  Have a nice day.  *
