 Q-Chem 5.0, Q-Chem, Inc., Pleasanton, CA (2017)
 Q-Chem 5.0.2 for Intel X86 EM64T Linux

User input:
--------------------------------------------------------------
$molecule
0 2
C        1.6500234617    0.6054662198   -0.2623269699
C        1.2325746745   -0.7329617889   -0.3362170362
C       -0.2559647801   -0.7503191053   -0.4537266461
C       -1.3115348783    0.5419118886    0.8585487964
C       -0.5677066057    0.7997117074   -0.4520205131
N        0.6917772394    1.5248709807   -0.3214182596
H        2.6847934793    0.9219090544   -0.1378675780
H        1.8797572563   -1.6011290235   -0.2742709021
H       -0.6496916009   -1.3699829537   -1.2702100914
H       -1.8178740554    1.2180200326    1.5408240070
H       -1.1692559991    1.2031145147   -1.2759942128
C       -1.0616590323   -0.7720564340    0.8550882347
H       -1.3052391595   -1.5885550930    1.5295911710
$end

$rem
method                b3lyp
basis                 6-31g(d)
unrestricted          true
symmetry              off
sym_ignore            true
incdft                false
incfock               0
scf_convergence       8
thresh                14
jobtype               opt
scf_guess             read
scf_algorithm         diis
max_scf_cycles        100
geom_opt_tol_gradient 600
geom_opt_tol_displacement 2400
geom_opt_tol_energy   200
geom_opt_max_cycles   100
$end

--------------------------------------------------------------

    2    -286.8754359123      2.05E-09 Convergence criterion met
 Total energy in the final basis set = -286.87543591
   11    -286.8754381820      2.85E-09 Convergence criterion met
 Total energy in the final basis set = -286.87543818

             Standard Nuclear Orientation (Angstroms)
    I     Atom           X                Y                Z
 ----------------------------------------------------------------
    1      C       1.6493822686     0.6054315847    -0.2613163220
    2      C       1.2316998081    -0.7325597808    -0.3355951762
    3      C      -0.2565587562    -0.7498704742    -0.4553974102
    4      C      -1.3107823099     0.5413563108     0.8579312711
    5      C      -0.5684718934     0.7996530701    -0.4535632100
    6      N       0.6910650605     1.5242853725    -0.3219107119
    7      H       2.6842140604     0.9212890271    -0.1361487065
    8      H       1.8784123584    -1.6008965265    -0.2729527705
    9      H      -0.6486939211    -1.3698350139    -1.2722589853
   10      H      -1.8150202374     1.2180038187     1.5412354483
   11      H      -1.1704839203     1.2039483201    -1.2766023092
   12      C      -1.0613045191    -0.7725030533     0.8551316219
   13      H      -1.3034579986    -1.5883026555     1.5314472605
 ----------------------------------------------------------------

   10    -286.8754385155      5.01E-09 Convergence criterion met
 Total energy in the final basis set = -286.87543852
 Final energy is   -286.875438515504
 **  OPTIMIZATION CONVERGED  **

                    Orbital Energies (a.u.)
 --------------------------------------------------------------

 Alpha MOs
 -- Occupied --
-14.328 -10.217 -10.216 -10.207 -10.203 -10.200 -10.195  -0.944
 -0.837  -0.752  -0.665  -0.618  -0.554  -0.523  -0.515  -0.481
 -0.428  -0.403  -0.386  -0.355  -0.341  -0.322  -0.270  -0.253
 -0.203

 Beta MOs
 -- Occupied --
-14.318 -10.219 -10.218 -10.203 -10.199 -10.198 -10.194  -0.932
 -0.831  -0.734  -0.665  -0.610  -0.549  -0.520  -0.512  -0.475
 -0.420  -0.396  -0.381  -0.343  -0.334  -0.301  -0.264  -0.246

          Ground-State Mulliken Net Atomic Charges

     Atom                 Charge (a.u.)    Spin (a.u.)
  --------------------------------------------------------
      1 C                     0.048314      -0.230799
      2 C                    -0.114846       0.693387
      3 C                    -0.193460      -0.054077
      4 C                    -0.075774       0.031888
      5 C                    -0.062270      -0.027628
      6 N                    -0.351355       0.516924
      7 H                     0.140560       0.007440
      8 H                     0.143366      -0.032151
      9 H                     0.148091       0.025228
     10 H                     0.137376       0.003600
     11 H                     0.151569       0.025345
     12 C                    -0.104886       0.033963
     13 H                     0.133315       0.006883
  --------------------------------------------------------
  Sum of atomic charges =    -0.000000

                    Cartesian Multipole Moments
 -----------------------------------------------------------------
    Charge (ESU x 10^10)
                -0.0000
    Dipole Moment (Debye)
         X      -0.2885      Y      -2.1309      Z       0.0934
       Tot       2.1523
    Quadrupole Moments (Debye-Ang)
        XX     -37.4579     XY      -2.4184     YY     -43.0012
        XZ      -0.3730     YZ       0.5054     ZZ     -39.9453

 Total job time:  21.81s(wall), 81.34s(cpu)
        *  Thank you very much for using Q-Chem.  Have a nice day.  *
