 Q-Chem 5.0, Q-Chem, Inc., Pleasanton, CA (2017)
 Q-Chem 5.0.2 for Intel X86 EM64T Linux

User input:
--------------------------------------------------------------
$molecule
0 2
C        1.5171147127    0.3898650180   -0.4866259266
C        0.8563339301   -0.7750372977    0.1479962299
C       -0.5831653465   -1.0684753004   -0.2537426911
C       -1.1188896638    0.3093044839    0.0928934935
C       -0.4517806280    1.4991271120   -0.4896618527
N        0.8489651624    1.5061990854   -0.7782581044
H        2.5715462649    0.3466387863   -0.7496782899
H        1.4838792890   -1.6342773664    0.3765330482
H       -1.0644533321   -1.9653053434   -0.6167268720
H       -2.1902453272    0.3817308901    0.2702423826
H       -1.0171527529    2.4098464789   -0.6733614219
C       -0.3181621689   -0.5294496994    1.0789369381
H       -0.5339901397   -0.8701668475    2.0814530661
$end

$rem
method                b3lyp
basis                 6-31+g(d,p)
unrestricted          true
symmetry              off
sym_ignore            true
incdft                false
incfock               0
scf_convergence       8
thresh                14
jobtype               sp
scf_guess             core
scf_guess_mix         5
scf_algorithm         diis
max_scf_cycles        100
$end

--------------------------------------------------------------

             Standard Nuclear Orientation (Angstroms)
    I     Atom           X                Y                Z
 ----------------------------------------------------------------
    1      C       1.5171147127     0.3898650180    -0.4866259266
    2      C       0.8563339301    -0.7750372977     0.1479962299
    3      C      -0.5831653465    -1.0684753004    -0.2537426911
    4      C      -1.1188896638     0.3093044839     0.0928934935
    5      C      -0.4517806280     1.4991271120    -0.4896618527
    6      N       0.8489651624     1.5061990854    -0.7782581044
    7      H       2.5715462649     0.3466387863    -0.7496782899
    8      H       1.4838792890    -1.6342773664     0.3765330482
    9      H      -1.0644533321    -1.9653053434    -0.6167268720
   10      H      -2.1902453272     0.3817308901     0.2702423826
   11      H      -1.0171527529     2.4098464789    -0.6733614219
   12      C      -0.3181621689    -0.5294496994     1.0789369381
   13      H      -0.5339901397    -0.8701668475     2.0814530661
 ----------------------------------------------------------------

   20    -286.8792729092      6.85E-09 Convergence criterion met
 Total energy in the final basis set = -286.87927291

                    Orbital Energies (a.u.)
 --------------------------------------------------------------

 Alpha MOs
 -- Occupied --
-14.331 -10.226 -10.226 -10.226 -10.225 -10.225 -10.225  -0.970
 -0.907  -0.760  -0.652  -0.645  -0.597  -0.553  -0.490  -0.482
 -0.473  -0.417  -0.404  -0.374  -0.348  -0.310  -0.308  -0.239
 -0.184

 Beta MOs
 -- Occupied --
-14.334 -10.226 -10.226 -10.223 -10.223 -10.218 -10.218  -0.966
 -0.905  -0.748  -0.641  -0.640  -0.592  -0.550  -0.484  -0.476
 -0.472  -0.413  -0.387  -0.370  -0.333  -0.309  -0.305  -0.239

          Ground-State Mulliken Net Atomic Charges

     Atom                 Charge (a.u.)    Spin (a.u.)
  --------------------------------------------------------
      1 C                    -0.100553       0.606440
      2 C                    -0.173603      -0.050697
      3 C                    -0.013672       0.081398
      4 C                    -0.172733      -0.050445
      5 C                    -0.102135       0.604528
      6 N                    -0.216234      -0.201641
      7 H                     0.124306      -0.032330
      8 H                     0.130379       0.000809
      9 H                     0.141375      -0.004003
     10 H                     0.130396       0.000796
     11 H                     0.124229      -0.032221
     12 C                    -0.013132       0.081362
     13 H                     0.141378      -0.003996
  --------------------------------------------------------
  Sum of atomic charges =     0.000000

                    Cartesian Multipole Moments
 -----------------------------------------------------------------
    Charge (ESU x 10^10)
                 0.0000
    Dipole Moment (Debye)
         X      -1.4572      Y      -2.5853      Z       1.3376
       Tot       3.2552
    Quadrupole Moments (Debye-Ang)
        XX     -38.5023     XY      -3.9007     YY     -43.1604
        XZ       0.5591     YZ       1.1151     ZZ     -43.1734

 Total job time:  52.40s(wall), 105.33s(cpu)
        *  Thank you very much for using Q-Chem.  Have a nice day.  *
