 Q-Chem 5.0, Q-Chem, Inc., Pleasanton, CA (2017)
 Q-Chem 5.0.2 for Intel X86 EM64T Linux

User input:
--------------------------------------------------------------
$molecule
0 2
C        1.4731537715    0.4353056382   -0.3602869158
C        0.8918625603   -0.7821237417    0.2299101613
C       -0.7448770212   -0.8167797289    0.1560221046
C       -1.3097990373    0.4472149195   -0.3413355092
C       -0.5450485139    1.5428957205   -0.5655089561
N        0.8476419844    1.5292068480   -0.6388755411
H        2.5257322127    0.3799889962   -0.6446383605
H        1.4575968164   -1.6964639705    0.0419893326
H       -1.2444382515   -1.7415090924   -0.1366772498
H       -2.3796792055    0.4832094823   -0.5291522961
H       -1.0004169054    2.4876161052   -0.8463188491
C        0.0160460007   -0.7871998898    1.4019463193
H        0.0122255892   -1.4813612868    2.2329257594
$end

$rem
method                b3lyp
basis                 6-31+g(d,p)
unrestricted          true
symmetry              off
sym_ignore            true
incdft                false
incfock               0
scf_convergence       8
thresh                14
jobtype               sp
scf_guess             read
scf_algorithm         diis
max_scf_cycles        100
scf_final_print       1
$end

--------------------------------------------------------------

             Standard Nuclear Orientation (Angstroms)
    I     Atom           X                Y                Z
 ----------------------------------------------------------------
    1      C       1.4731537715     0.4353056382    -0.3602869158
    2      C       0.8918625603    -0.7821237417     0.2299101613
    3      C      -0.7448770212    -0.8167797289     0.1560221046
    4      C      -1.3097990373     0.4472149195    -0.3413355092
    5      C      -0.5450485139     1.5428957205    -0.5655089561
    6      N       0.8476419844     1.5292068480    -0.6388755411
    7      H       2.5257322127     0.3799889962    -0.6446383605
    8      H       1.4575968164    -1.6964639705     0.0419893326
    9      H      -1.2444382515    -1.7415090924    -0.1366772498
   10      H      -2.3796792055     0.4832094823    -0.5291522961
   11      H      -1.0004169054     2.4876161052    -0.8463188491
   12      C       0.0160460007    -0.7871998898     1.4019463193
   13      H       0.0122255892    -1.4813612868     2.2329257594
 ----------------------------------------------------------------

    2    -286.8764763819      2.36E-09 Convergence criterion met
 Total energy in the final basis set = -286.87647638

                    Orbital Energies (a.u.)
 --------------------------------------------------------------

 Alpha MOs
 -- Occupied --
-14.337 -10.240 -10.235 -10.232 -10.230 -10.217 -10.206  -0.946
 -0.878  -0.776  -0.677  -0.651  -0.579  -0.540  -0.499  -0.493
 -0.460  -0.436  -0.388  -0.381  -0.370  -0.309  -0.268  -0.241
 -0.228

 Beta MOs
 -- Occupied --
-14.337 -10.239 -10.235 -10.232 -10.218 -10.216 -10.205  -0.944
 -0.869  -0.774  -0.669  -0.649  -0.565  -0.535  -0.496  -0.483
 -0.456  -0.433  -0.386  -0.379  -0.362  -0.300  -0.263  -0.236

          Ground-State Mulliken Net Atomic Charges

     Atom                 Charge (a.u.)    Spin (a.u.)
  --------------------------------------------------------
      1 C                    -0.050603      -0.051824
      2 C                    -0.019532       0.027217
      3 C                    -0.142300      -0.034074
      4 C                     0.073892       0.054462
      5 C                    -0.252157      -0.037689
      6 N                    -0.181808       0.018131
      7 H                     0.128183       0.005031
      8 H                     0.144150       0.024495
      9 H                     0.144202       0.016487
     10 H                     0.133248       0.002839
     11 H                     0.124938       0.000896
     12 C                    -0.250740       0.996266
     13 H                     0.148529      -0.022239
  --------------------------------------------------------
  Sum of atomic charges =     0.000000

                    Cartesian Multipole Moments
 -----------------------------------------------------------------
    Charge (ESU x 10^10)
                 0.0000
    Dipole Moment (Debye)
         X      -0.7914      Y      -2.9676      Z       0.5510
       Tot       3.1203
    Quadrupole Moments (Debye-Ang)
        XX     -38.6941     XY      -3.5547     YY     -42.3806
        XZ       1.2053     YZ      -0.4363     ZZ     -43.7793

 Total job time:  8.47s(wall), 11.94s(cpu)
        *  Thank you very much for using Q-Chem.  Have a nice day.  *
