 Q-Chem 5.0, Q-Chem, Inc., Pleasanton, CA (2017)
 Q-Chem 5.0.2 for Intel X86 EM64T Linux

User input:
--------------------------------------------------------------
$molecule
0 2
C        1.4682868321    0.4430805743   -0.3533865526
C        0.8844022873   -0.7856752825    0.2151865042
C       -0.7449520357   -0.8069154899    0.1733851284
C       -1.3123418507    0.4543349172   -0.3313042279
C       -0.5485538449    1.5422439192   -0.5750737492
N        0.8458281931    1.5355327297   -0.6342302106
H        2.5297900783    0.3980229984   -0.6089834875
H        1.4422790578   -1.6995033966    0.0014279069
H       -1.2580007387   -1.7281406933   -0.1086990447
H       -2.3831085016    0.4873436658   -0.5171458804
H       -1.0036800811    2.4809373004   -0.8802618728
C        0.0353959252   -0.7960443043    1.4088119362
H        0.0446546791   -1.5252169379    2.2102735501
****
C        1.5164453084    0.3970222276   -0.4801239439
C        0.8530395677   -0.7814352775    0.1266787600
C       -0.5919705350   -1.0631990086   -0.2533895305
C       -1.1148078620    0.3154644788    0.1140434293
C       -0.4546574914    1.4958704863   -0.4938079486
N        0.8464149501    1.5090209217   -0.7765295707
H        2.5823589227    0.3744990098   -0.6984255131
H        1.4771284433   -1.6491137615    0.3343578233
H       -1.0844877022   -1.9529302133   -0.6202567259
H       -2.1825490230    0.3920951705    0.3125006709
H       -1.0321072959    2.3891884563   -0.7240367870
C       -0.3068280923   -0.5383995524    1.0779775531
H       -0.5079791906   -0.8880829378    2.0810117830
$end

$rem
method                b3lyp
basis                 6-31g(d)
unrestricted          true
symmetry              off
sym_ignore            true
incdft                false
incfock               0
scf_convergence       8
thresh                14
jobtype               fsm
scf_guess             core
scf_guess_mix         5
scf_algorithm         diis
max_scf_cycles        100
fsm_nnode             21
fsm_ngrad             6
fsm_mode              2
fsm_opt_mode          2
$end

--------------------------------------------------------------

   20    -286.8549501785      8.18E-09 Convergence criterion met
 Total energy in the final basis set = -286.85495018
   19    -286.8584562581      3.77E-09 Convergence criterion met
 Total energy in the final basis set = -286.85845626
   21    -286.8544924848      8.14E-09 Convergence criterion met
 Total energy in the final basis set = -286.85449248
   21    -286.8520968282      5.05E-09 Convergence criterion met
 Total energy in the final basis set = -286.85209683
   22    -286.8542904134      4.75E-09 Convergence criterion met
 Total energy in the final basis set = -286.85429041
   19    -286.8573628705      4.11E-09 Convergence criterion met
 Total energy in the final basis set = -286.85736287
   19    -286.8561437697      9.06E-09 Convergence criterion met
 Total energy in the final basis set = -286.85614377
   19    -286.8558036645      3.95E-09 Convergence criterion met
 Total energy in the final basis set = -286.83117770
   22    -286.8309235199      3.24E-09 Convergence criterion met
 Total energy in the final basis set = -286.83092352
   22    -286.8311671737      6.63E-09 Convergence criterion met
 Total energy in the final basis set = -286.83116717
   22    -286.8309354494      3.13E-09 Convergence criterion met
 Total energy in the final basis set = -286.83093545
   22    -286.8311622646      6.71E-09 Convergence criterion met
 Total energy in the final basis set = -286.83116226
   22    -286.8309417292      3.10E-09 Convergence criterion met
 Total energy in the final basis set = -286.83094173
   22    -286.8311600447      6.69E-09 Convergence criterion met
 Total energy in the final basis set = -286.83116004
   22    -286.8309447906      3.10E-09 Convergence criterion met
 Total energy in the final basis set = -286.83094479

                    Orbital Energies (a.u.)
 --------------------------------------------------------------

 Alpha MOs
 -- Occupied --
-14.320 -10.226 -10.222 -10.216 -10.216 -10.215 -10.214  -0.945
 -0.885  -0.757  -0.652  -0.640  -0.579  -0.542  -0.485  -0.478
 -0.463  -0.420  -0.387  -0.371  -0.340  -0.307  -0.269  -0.237
 -0.169

 Beta MOs
 -- Occupied --
-14.323 -10.229 -10.216 -10.216 -10.215 -10.208 -10.207  -0.941
 -0.881  -0.749  -0.646  -0.632  -0.568  -0.538  -0.480  -0.471
 -0.461  -0.417  -0.376  -0.364  -0.332  -0.300  -0.257  -0.229

          Ground-State Mulliken Net Atomic Charges

     Atom                 Charge (a.u.)    Spin (a.u.)
  --------------------------------------------------------
      1 C                     0.082766       0.403582
      2 C                    -0.207546      -0.034099
      3 C                    -0.083212       0.047320
      4 C                    -0.177101      -0.200138
      5 C                     0.059402       0.495935
      6 N                    -0.393885      -0.158491
      7 H                     0.139540      -0.020559
      8 H                     0.147759       0.010156
      9 H                     0.151705      -0.002795
     10 H                     0.148936       0.011435
     11 H                     0.140333      -0.027245
     12 C                    -0.165828       0.488482
     13 H                     0.157131      -0.013584
  --------------------------------------------------------
  Sum of atomic charges =    -0.000000

                    Cartesian Multipole Moments
 -----------------------------------------------------------------
    Charge (ESU x 10^10)
                 0.0000
    Dipole Moment (Debye)
         X      -1.2281      Y      -2.5231      Z       0.6271
       Tot       2.8754
    Quadrupole Moments (Debye-Ang)
        XX     -37.0351     XY      -3.4154     YY     -41.3408
        XZ       0.9473     YZ       0.1793     ZZ     -42.4392

             Standard Nuclear Orientation (Angstroms)
    I     Atom           X                Y                Z
 ----------------------------------------------------------------
    1      C       1.5025464625     0.4066960250    -0.4703932251
    2      C       0.8552048069    -0.7656011973     0.1734840148
    3      C      -0.6211435937    -1.0085380319    -0.1422082840
    4      C      -1.1952090743     0.3472176280    -0.0952648472
    5      C      -0.4821714271     1.4983807424    -0.5272735240
    6      N       0.8501161118     1.5017502693    -0.7753999251
    7      H       2.5648694175     0.3675767646    -0.7043601616
    8      H       1.4735037254    -1.6572428287     0.2635207344
    9      H      -1.1046027839    -1.9140722812    -0.4908441885
   10      H      -2.2705596354     0.4440456018     0.0525869299
   11      H      -1.0060783957     2.4415197818    -0.6476970928
   12      C      -0.2254942295    -0.5973973727     1.1962133100
   13      H      -0.3488183838    -1.0659750165     2.1628908056
 ----------------------------------------------------------------

 Total job time:  4053.73s(wall), 5049.01s(cpu)
        *  Thank you very much for using Q-Chem.  Have a nice day.  *
