 Q-Chem 5.0, Q-Chem, Inc., Pleasanton, CA (2017)
 Q-Chem 5.0.2 for Intel X86 EM64T Linux

User input:
--------------------------------------------------------------
$molecule
0 2
C        1.4988727852    0.4027011379   -0.4822043105
C        0.8727889660   -0.7570299386    0.2099487682
C       -0.6190436939   -1.0007376105   -0.1343919820
C       -1.2172956904    0.3456322638   -0.1822277373
C       -0.4952244681    1.4964444137   -0.5061769677
N        0.8482546969    1.4844884485   -0.7863441162
H        2.5382650668    0.3234266003   -0.8000560796
H        1.4938218481   -1.6492957101    0.2935762061
H       -1.0448826706   -1.9188835231   -0.5277182865
H       -2.2866398483    0.4245266081   -0.0012611791
H       -0.9850855745    2.4647249097   -0.5130200792
C       -0.2075910391   -0.6348300110    1.2115509524
H       -0.4040773772   -0.9828075043    2.2135793577
$end

$rem
method                b3lyp
basis                 6-31+g(d,p)
unrestricted          true
symmetry              off
sym_ignore            true
incdft                false
incfock               0
scf_convergence       8
thresh                14
jobtype               rpath
scf_guess             core
scf_guess_mix         5
scf_algorithm         diis
max_scf_cycles        100
rpath_direction       1
rpath_tol_displacement 1000
rpath_max_cycles      50
geom_opt_max_cycles   300
geom_opt_hessian      read
$end

--------------------------------------------------------------

   22    -286.8561487011      6.91E-09 Convergence criterion met
 Total energy in the final basis set = -286.85614870
   22    -286.8575763320      5.60E-09 Convergence criterion met
 Total energy in the final basis set = -286.85757633
   22    -286.8575115209      5.63E-09 Convergence criterion met
 Total energy in the final basis set = -286.85751152
   22    -286.8575771770      5.60E-09 Convergence criterion met
 Total energy in the final basis set = -286.85757718
   22    -286.8616167630      4.16E-09 Convergence criterion met
 Total energy in the final basis set = -286.86161676
   22    -286.8615863105      4.21E-09 Convergence criterion met
 Total energy in the final basis set = -286.86158631
   22    -286.8616226628      4.17E-09 Convergence criterion met
 Total energy in the final basis set = -286.86162266
   21    -286.8669094619      7.95E-09 Convergence criterion met
 Total energy in the final basis set = -286.87549580
   21    -286.8764706751      8.62E-09 Convergence criterion met
 Total energy in the final basis set = -286.87647068
   21    -286.8764627584      8.32E-09 Convergence criterion met
 Total energy in the final basis set = -286.87646276
   21    -286.8764735133      6.89E-09 Convergence criterion met
 Total energy in the final basis set = -286.87647351
   23    -286.8734203255      3.21E-09 Convergence criterion met
 Total energy in the final basis set = -286.87342033
   21    -286.8764754752      8.01E-09 Convergence criterion met
 Total energy in the final basis set = -286.87647548
   21    -286.8764751797      8.40E-09 Convergence criterion met
 Total energy in the final basis set = -286.87647518
   21    -286.8764763817      5.28E-09 Convergence criterion met
 Total energy in the final basis set = -286.87647638

                    Orbital Energies (a.u.)
 --------------------------------------------------------------

 Alpha MOs
 -- Occupied --
-14.337 -10.240 -10.235 -10.232 -10.230 -10.217 -10.206  -0.946
 -0.878  -0.776  -0.677  -0.651  -0.579  -0.540  -0.499  -0.493
 -0.460  -0.436  -0.388  -0.381  -0.370  -0.309  -0.268  -0.241
 -0.228

 Beta MOs
 -- Occupied --
-14.337 -10.239 -10.235 -10.232 -10.218 -10.216 -10.205  -0.944
 -0.869  -0.774  -0.669  -0.649  -0.565  -0.535  -0.496  -0.483
 -0.456  -0.433  -0.386  -0.379  -0.362  -0.300  -0.263  -0.236

          Ground-State Mulliken Net Atomic Charges

     Atom                 Charge (a.u.)    Spin (a.u.)
  --------------------------------------------------------
      1 C                    -0.050603      -0.051840
      2 C                    -0.019532       0.027222
      3 C                    -0.142300      -0.034080
      4 C                     0.073892       0.054489
      5 C                    -0.252157      -0.037710
      6 N                    -0.181808       0.018142
      7 H                     0.128183       0.005032
      8 H                     0.144150       0.024495
      9 H                     0.144202       0.016487
     10 H                     0.133248       0.002837
     11 H                     0.124938       0.000898
     12 C                    -0.250741       0.996266
     13 H                     0.148529      -0.022238
  --------------------------------------------------------
  Sum of atomic charges =     0.000000

                    Cartesian Multipole Moments
 -----------------------------------------------------------------
    Charge (ESU x 10^10)
                 0.0000
    Dipole Moment (Debye)
         X      -0.7914      Y      -2.9676      Z       0.5510
       Tot       3.1203
    Quadrupole Moments (Debye-Ang)
        XX     -38.6932     XY      -3.5529     YY     -42.3799
        XZ       1.2053     YZ      -0.4352     ZZ     -43.7797

             Standard Nuclear Orientation (Angstroms)
    I     Atom           X                Y                Z
 ----------------------------------------------------------------
    1      C       1.4988727852     0.4027011379    -0.4822043105
    2      C       0.8727889660    -0.7570299386     0.2099487682
    3      C      -0.6190436939    -1.0007376105    -0.1343919820
    4      C      -1.2172956904     0.3456322638    -0.1822277373
    5      C      -0.4952244681     1.4964444137    -0.5061769677
    6      N       0.8482546969     1.4844884485    -0.7863441162
    7      H       2.5382650668     0.3234266003    -0.8000560796
    8      H       1.4938218481    -1.6492957101     0.2935762061
    9      H      -1.0448826706    -1.9188835231    -0.5277182865
   10      H      -2.2866398483     0.4245266081    -0.0012611791
   11      H      -0.9850855745     2.4647249097    -0.5130200792
   12      C      -0.2075910391    -0.6348300110     1.2115509524
   13      H      -0.4040773772    -0.9828075043     2.2135793577
 ----------------------------------------------------------------

 Total job time:  21848.75s(wall), 35479.90s(cpu)
        *  Thank you very much for using Q-Chem.  Have a nice day.  *
