 Q-Chem 5.0, Q-Chem, Inc., Pleasanton, CA (2017)
 Q-Chem 5.0.2 for Intel X86 EM64T Linux

User input:
--------------------------------------------------------------
$molecule
0 2
C        1.5164092504    0.3970059750   -0.4801428518
C        0.8530348703   -0.7814248652    0.1267558406
C       -0.5920261475   -1.0630994478   -0.2532948765
C       -1.1147919436    0.3153463506    0.1138800816
C       -0.4545331516    1.4960737079   -0.4935870867
N        0.8463556059    1.5089947613   -0.7766774000
H        2.5822481034    0.3744660638   -0.6987457291
H        1.4770668176   -1.6490779175    0.3347268910
H       -1.0842922553   -1.9529504614   -0.6202086308
H       -2.1825301154    0.3920699476    0.3124775618
H       -1.0320484011    2.3892807785   -0.7240481721
C       -0.3068346106   -0.5381252990    1.0780556031
H       -0.5080580226   -0.8885595938    2.0808087689
$end

$rem
method                b3lyp
basis                 6-31g(d)
unrestricted          true
symmetry              off
sym_ignore            true
incdft                false
incfock               0
scf_convergence       8
thresh                14
jobtype               opt
scf_guess             core
scf_guess_mix         5
scf_algorithm         diis
max_scf_cycles        100
geom_opt_max_cycles   300
$end

--------------------------------------------------------------

   19    -286.8584558322      3.81E-09 Convergence criterion met
 Total energy in the final basis set = -286.85845583

             Standard Nuclear Orientation (Angstroms)
    I     Atom           X                Y                Z
 ----------------------------------------------------------------
    1      C       1.5164453084     0.3970222276    -0.4801239439
    2      C       0.8530395677    -0.7814352775     0.1266787600
    3      C      -0.5919705350    -1.0631990086    -0.2533895305
    4      C      -1.1148078620     0.3154644788     0.1140434293
    5      C      -0.4546574914     1.4958704863    -0.4938079486
    6      N       0.8464149501     1.5090209217    -0.7765295707
    7      H       2.5823589227     0.3744990098    -0.6984255131
    8      H       1.4771284433    -1.6491137615     0.3343578233
    9      H      -1.0844877022    -1.9529302133    -0.6202567259
   10      H      -2.1825490230     0.3920951705     0.3125006709
   11      H      -1.0321072959     2.3891884563    -0.7240367870
   12      C      -0.3068280923    -0.5383995524     1.0779775531
   13      H      -0.5079791906    -0.8880829378     2.0810117830
 ----------------------------------------------------------------

   13    -286.8584562412      9.30E-09 Convergence criterion met
 Total energy in the final basis set = -286.85845624
 Final energy is   -286.858456241220
 **  OPTIMIZATION CONVERGED  **

                    Orbital Energies (a.u.)
 --------------------------------------------------------------

 Alpha MOs
 -- Occupied --
-14.317 -10.216 -10.216 -10.215 -10.215 -10.215 -10.215  -0.960
 -0.896  -0.750  -0.643  -0.635  -0.589  -0.545  -0.482  -0.471
 -0.465  -0.408  -0.395  -0.365  -0.338  -0.299  -0.298  -0.227
 -0.173

 Beta MOs
 -- Occupied --
-14.320 -10.216 -10.216 -10.213 -10.213 -10.207 -10.207  -0.955
 -0.894  -0.738  -0.631  -0.630  -0.584  -0.542  -0.476  -0.466
 -0.464  -0.405  -0.377  -0.362  -0.323  -0.298  -0.294  -0.227

          Ground-State Mulliken Net Atomic Charges

     Atom                 Charge (a.u.)    Spin (a.u.)
  --------------------------------------------------------
      1 C                     0.076673       0.597348
      2 C                    -0.221162      -0.053384
      3 C                    -0.089948       0.094716
      4 C                    -0.221291      -0.053301
      5 C                     0.076657       0.597002
      6 N                    -0.395284      -0.205358
      7 H                     0.135583      -0.032059
      8 H                     0.142128       0.000518
      9 H                     0.154185      -0.004294
     10 H                     0.142164       0.000517
     11 H                     0.135561      -0.032046
     12 C                    -0.089476       0.094626
     13 H                     0.154210      -0.004285
  --------------------------------------------------------
  Sum of atomic charges =     0.000000

                    Cartesian Multipole Moments
 -----------------------------------------------------------------
    Charge (ESU x 10^10)
                -0.0000
    Dipole Moment (Debye)
         X      -1.3318      Y      -2.3749      Z       1.2209
       Tot       2.9841
    Quadrupole Moments (Debye-Ang)
        XX     -37.5212     XY      -3.3864     YY     -41.6919
        XZ       0.5356     YZ       0.8879     ZZ     -41.7396

 Total job time:  81.06s(wall), 102.86s(cpu)
        *  Thank you very much for using Q-Chem.  Have a nice day.  *
