 Q-Chem 5.0, Q-Chem, Inc., Pleasanton, CA (2017)
 Q-Chem 5.0.2 for Intel X86 EM64T Linux

User input:
--------------------------------------------------------------
$molecule
0 2
C        1.4971285170    0.4043364854   -0.4809742454
C        0.8712316258   -0.7559560188    0.2112505077
C       -0.6187106980   -0.9995608313   -0.1311495577
C       -1.2170595501    0.3474188140   -0.1832428558
C       -0.4949594280    1.4949631779   -0.5095156171
N        0.8484660758    1.4841828076   -0.7886685001
H        2.5380022331    0.3247795464   -0.7968982262
H        1.4909982005   -1.6497956151    0.2922985494
H       -1.0436744475   -1.9176221496   -0.5280554443
H       -2.2861128296    0.4260637806    0.0018067004
H       -0.9842069362    2.4645417133   -0.5179223144
C       -0.2091350227   -0.6328351261    1.2132031979
H       -0.3998047394   -0.9921564998    2.2131223519
$end

$rem
method                b3lyp
basis                 6-31+g(d,p)
unrestricted          true
symmetry              off
sym_ignore            true
incdft                false
incfock               0
scf_convergence       6
thresh                14
jobtype               sp
scf_guess             read
scf_algorithm         diis
max_scf_cycles        100
stability_analysis    true
max_cis_cycles        100
cis_n_roots           4
$end

--------------------------------------------------------------

             Standard Nuclear Orientation (Angstroms)
    I     Atom           X                Y                Z
 ----------------------------------------------------------------
    1      C       1.4971285170     0.4043364854    -0.4809742454
    2      C       0.8712316258    -0.7559560188     0.2112505077
    3      C      -0.6187106980    -0.9995608313    -0.1311495577
    4      C      -1.2170595501     0.3474188140    -0.1832428558
    5      C      -0.4949594280     1.4949631779    -0.5095156171
    6      N       0.8484660758     1.4841828076    -0.7886685001
    7      H       2.5380022331     0.3247795464    -0.7968982262
    8      H       1.4909982005    -1.6497956151     0.2922985494
    9      H      -1.0436744475    -1.9176221496    -0.5280554443
   10      H      -2.2861128296     0.4260637806     0.0018067004
   11      H      -0.9842069362     2.4645417133    -0.5179223144
   12      C      -0.2091350227    -0.6328351261     1.2132031979
   13      H      -0.3998047394    -0.9921564998     2.2131223519
 ----------------------------------------------------------------

    2    -286.8561299852      2.49E-09 Convergence criterion met
 Total energy in the final basis set = -286.85612999

         TDDFT/TDA Excitation Energies
 ---------------------------------------------------

 Excited state   1: excitation energy (eV) =    2.3622
 Total energy for state  1:                  -286.76932192 au
    <S**2>     :  0.8228
    Trans. Mom.:  0.3058 X   0.0621 Y  -0.0979 Z
    Strength   :     0.0061887660
    S(  1) --> V(  1) amplitude =  0.9243 alpha
    D( 24) --> S(  1) amplitude = -0.3249 beta

 Excited state   2: excitation energy (eV) =    3.2748
 Total energy for state  2:                  -286.73578244 au
    <S**2>     :  0.8760
    Trans. Mom.:  0.1915 X   0.2780 Y  -0.2739 Z
    Strength   :     0.0151595094
    S(  1) --> V(  1) amplitude =  0.2718 alpha
    D( 23) --> S(  1) amplitude = -0.2672 beta
    D( 24) --> S(  1) amplitude =  0.8893 beta

 Excited state   3: excitation energy (eV) =    3.7784
 Total energy for state  3:                  -286.71727465 au
    <S**2>     :  0.9668
    Trans. Mom.:  0.3266 X   0.3347 Y  -0.2874 Z
    Strength   :     0.0278883820
    S(  1) --> V(  1) amplitude =  0.1767 alpha
    S(  1) --> V(  2) amplitude =  0.1613 alpha
    D( 23) --> S(  1) amplitude =  0.8664 beta
    D( 24) --> S(  1) amplitude =  0.1584 beta
    D( 24) --> V(  1) amplitude =  0.2261 beta

 Excited state   4: excitation energy (eV) =    3.9168
 Total energy for state  4:                  -286.71218933 au
    <S**2>     :  0.8192
    Trans. Mom.: -0.0332 X  -0.0772 Y   0.2358 Z
    Strength   :     0.0060121314
    S(  1) --> V(  2) amplitude =  0.9713 alpha
    D( 23) --> S(  1) amplitude = -0.1548 beta

 ---------------------------------------------------

                    Orbital Energies (a.u.)
 --------------------------------------------------------------

 Alpha MOs
 -- Occupied --
-14.336 -10.234 -10.229 -10.228 -10.227 -10.226 -10.221  -0.958
 -0.895  -0.770  -0.661  -0.650  -0.590  -0.546  -0.494  -0.491
 -0.474  -0.434  -0.390  -0.380  -0.355  -0.311  -0.278  -0.259
 -0.175

 Beta MOs
 -- Occupied --
-14.337 -10.231 -10.230 -10.228 -10.228 -10.216 -10.215  -0.954
 -0.890  -0.764  -0.655  -0.644  -0.577  -0.542  -0.488  -0.486
 -0.471  -0.431  -0.380  -0.376  -0.349  -0.306  -0.264  -0.248

          Ground-State Mulliken Net Atomic Charges

     Atom                 Charge (a.u.)    Spin (a.u.)
  --------------------------------------------------------
      1 C                    -0.035344       0.271620
      2 C                    -0.138456      -0.046623
      3 C                     0.054169      -0.003275
      4 C                    -0.083514      -0.192372
      5 C                    -0.194061       0.425366
      6 N                    -0.192399      -0.094149
      7 H                     0.124712      -0.013265
      8 H                     0.137622       0.019196
      9 H                     0.139477       0.000524
     10 H                     0.140604       0.010792
     11 H                     0.126741      -0.022966
     12 C                    -0.222858       0.666853
     13 H                     0.143307      -0.021701
  --------------------------------------------------------
  Sum of atomic charges =     0.000000

                    Cartesian Multipole Moments
 -----------------------------------------------------------------
    Charge (ESU x 10^10)
                 0.0000
    Dipole Moment (Debye)
         X      -1.1585      Y      -2.6677      Z       0.9513
       Tot       3.0600
    Quadrupole Moments (Debye-Ang)
        XX     -38.2688     XY      -3.5583     YY     -42.8980
        XZ       0.5221     YZ       1.1380     ZZ     -43.8268

 Total job time:  316.40s(wall), 208.42s(cpu)
        *  Thank you very much for using Q-Chem.  Have a nice day.  *
