 Q-Chem 5.0, Q-Chem, Inc., Pleasanton, CA (2017)
 Q-Chem 5.0.2 for Intel X86 EM64T Linux

User input:
--------------------------------------------------------------
$molecule
0 2
C        1.5025464625    0.4066960250   -0.4703932251
C        0.8552048069   -0.7656011973    0.1734840148
C       -0.6211435937   -1.0085380319   -0.1422082840
C       -1.1952090743    0.3472176280   -0.0952648472
C       -0.4821714271    1.4983807424   -0.5272735240
N        0.8501161118    1.5017502693   -0.7753999251
H        2.5648694175    0.3675767646   -0.7043601616
H        1.4735037254   -1.6572428287    0.2635207344
H       -1.1046027839   -1.9140722812   -0.4908441885
H       -2.2705596354    0.4440456018    0.0525869299
H       -1.0060783957    2.4415197818   -0.6476970928
C       -0.2254942295   -0.5973973727    1.1962133100
H       -0.3488183838   -1.0659750165    2.1628908056
$end

$rem
method                b3lyp
basis                 6-31g(d)
unrestricted          true
symmetry              off
sym_ignore            true
incdft                false
incfock               0
scf_convergence       8
thresh                14
jobtype               ts
scf_guess             read
scf_algorithm         diis
max_scf_cycles        100
geom_opt_max_cycles   500
geom_opt_dmax         100
geom_opt_tol_gradient 10
geom_opt_hessian      read
$end

--------------------------------------------------------------

    2    -286.8352522686      2.56E-10 Convergence criterion met
 Total energy in the final basis set = -286.83525227
   14    -286.8349138261      5.89E-09 Convergence criterion met
 Total energy in the final basis set = -286.83491383
   14    -286.8346782500      6.24E-09 Convergence criterion met
 Total energy in the final basis set = -286.83467825
   14    -286.8345186214      6.77E-09 Convergence criterion met
 Total energy in the final basis set = -286.83451862
   14    -286.8344132146      7.32E-09 Convergence criterion met
 Total energy in the final basis set = -286.83441321
   14    -286.8343463679      8.04E-09 Convergence criterion met
 Total energy in the final basis set = -286.83434637
   14    -286.8343076959      8.81E-09 Convergence criterion met
 Total energy in the final basis set = -286.83430770
   14    -286.8342901377      8.54E-09 Convergence criterion met
 Total energy in the final basis set = -286.83429014
   14    -286.8342875344      6.52E-09 Convergence criterion met
 Total energy in the final basis set = -286.83428753
   13    -286.8342893994      5.83E-09 Convergence criterion met
 Total energy in the final basis set = -286.83428940
   10    -286.8342896378      4.63E-09 Convergence criterion met
 Total energy in the final basis set = -286.83428964

             Standard Nuclear Orientation (Angstroms)
    I     Atom           X                Y                Z
 ----------------------------------------------------------------
    1      C       1.4971285170     0.4043364854    -0.4809742454
    2      C       0.8712316258    -0.7559560188     0.2112505077
    3      C      -0.6187106980    -0.9995608313    -0.1311495577
    4      C      -1.2170595501     0.3474188140    -0.1832428558
    5      C      -0.4949594280     1.4949631779    -0.5095156171
    6      N       0.8484660758     1.4841828076    -0.7886685001
    7      H       2.5380022331     0.3247795464    -0.7968982262
    8      H       1.4909982005    -1.6497956151     0.2922985494
    9      H      -1.0436744475    -1.9176221496    -0.5280554443
   10      H      -2.2861128296     0.4260637806     0.0018067004
   11      H      -0.9842069362     2.4645417133    -0.5179223144
   12      C      -0.2091350227    -0.6328351261     1.2132031979
   13      H      -0.3998047394    -0.9921564998     2.2131223519
 ----------------------------------------------------------------

    8    -286.8342896460      3.62E-09 Convergence criterion met
 Total energy in the final basis set = -286.83428965
 Final energy is   -286.834289646013
 **  OPTIMIZATION CONVERGED  **

                    Orbital Energies (a.u.)
 --------------------------------------------------------------

 Alpha MOs
 -- Occupied --
-14.321 -10.223 -10.218 -10.218 -10.217 -10.214 -10.210  -0.945
 -0.883  -0.759  -0.651  -0.640  -0.581  -0.538  -0.484  -0.483
 -0.464  -0.425  -0.380  -0.371  -0.344  -0.300  -0.266  -0.247
 -0.164

 Beta MOs
 -- Occupied --
-14.323 -10.220 -10.219 -10.218 -10.217 -10.205 -10.204  -0.941
 -0.877  -0.753  -0.645  -0.633  -0.568  -0.533  -0.479  -0.477
 -0.461  -0.422  -0.369  -0.367  -0.338  -0.295  -0.252  -0.236

          Ground-State Mulliken Net Atomic Charges

     Atom                 Charge (a.u.)    Spin (a.u.)
  --------------------------------------------------------
      1 C                     0.087156       0.277863
      2 C                    -0.196240      -0.039307
      3 C                    -0.111297       0.027956
      4 C                    -0.149588      -0.198877
      5 C                     0.040099       0.418852
      6 N                    -0.390315      -0.102334
      7 H                     0.138038      -0.013364
      8 H                     0.148148       0.019198
      9 H                     0.151411       0.000347
     10 H                     0.150923       0.011654
     11 H                     0.137975      -0.023029
     12 C                    -0.162551       0.644520
     13 H                     0.156242      -0.023479
  --------------------------------------------------------
  Sum of atomic charges =    -0.000000

                    Cartesian Multipole Moments
 -----------------------------------------------------------------
    Charge (ESU x 10^10)
                -0.0000
    Dipole Moment (Debye)
         X      -1.1082      Y      -2.4375      Z       0.8752
       Tot       2.8170
    Quadrupole Moments (Debye-Ang)
        XX     -37.2714     XY      -3.2722     YY     -41.4035
        XZ       0.4356     YZ       0.9145     ZZ     -42.1628

 Total job time:  332.39s(wall), 486.73s(cpu)
        *  Thank you very much for using Q-Chem.  Have a nice day.  *
