 Q-Chem 5.0, Q-Chem, Inc., Pleasanton, CA (2017)
 Q-Chem 5.0.2 for Intel X86 EM64T Linux

User input:
--------------------------------------------------------------
$molecule
0 2
C        1.4971285170    0.4043364854   -0.4809742454
C        0.8712316258   -0.7559560188    0.2112505077
C       -0.6187106980   -0.9995608313   -0.1311495577
C       -1.2170595501    0.3474188140   -0.1832428558
C       -0.4949594280    1.4949631779   -0.5095156171
N        0.8484660758    1.4841828076   -0.7886685001
H        2.5380022331    0.3247795464   -0.7968982262
H        1.4909982005   -1.6497956151    0.2922985494
H       -1.0436744475   -1.9176221496   -0.5280554443
H       -2.2861128296    0.4260637806    0.0018067004
H       -0.9842069362    2.4645417133   -0.5179223144
C       -0.2091350227   -0.6328351261    1.2132031979
H       -0.3998047394   -0.9921564998    2.2131223519
$end

$rem
method                b3lyp
basis                 6-31+g(d,p)
unrestricted          true
symmetry              off
sym_ignore            true
incdft                false
incfock               0
scf_convergence       8
thresh                14
jobtype               freq
scf_guess             read
scf_algorithm         diis
max_scf_cycles        100
$end

--------------------------------------------------------------

             Standard Nuclear Orientation (Angstroms)
    I     Atom           X                Y                Z
 ----------------------------------------------------------------
    1      C       1.4971285170     0.4043364854    -0.4809742454
    2      C       0.8712316258    -0.7559560188     0.2112505077
    3      C      -0.6187106980    -0.9995608313    -0.1311495577
    4      C      -1.2170595501     0.3474188140    -0.1832428558
    5      C      -0.4949594280     1.4949631779    -0.5095156171
    6      N       0.8484660758     1.4841828076    -0.7886685001
    7      H       2.5380022331     0.3247795464    -0.7968982262
    8      H       1.4909982005    -1.6497956151     0.2922985494
    9      H      -1.0436744475    -1.9176221496    -0.5280554443
   10      H      -2.2861128296     0.4260637806     0.0018067004
   11      H      -0.9842069362     2.4645417133    -0.5179223144
   12      C      -0.2091350227    -0.6328351261     1.2132031979
   13      H      -0.3998047394    -0.9921564998     2.2131223519
 ----------------------------------------------------------------

    2    -286.8561299853      2.28E-09 Convergence criterion met
 Total energy in the final basis set = -286.85612999

                    Orbital Energies (a.u.)
 --------------------------------------------------------------

 Alpha MOs
 -- Occupied --
-14.336 -10.234 -10.229 -10.228 -10.227 -10.226 -10.221  -0.958
 -0.895  -0.770  -0.661  -0.650  -0.590  -0.546  -0.494  -0.491
 -0.474  -0.434  -0.390  -0.380  -0.355  -0.311  -0.278  -0.259
 -0.175

 Beta MOs
 -- Occupied --
-14.337 -10.231 -10.230 -10.228 -10.228 -10.216 -10.215  -0.954
 -0.890  -0.764  -0.655  -0.644  -0.577  -0.542  -0.488  -0.486
 -0.471  -0.431  -0.380  -0.376  -0.349  -0.306  -0.264  -0.248

          Ground-State Mulliken Net Atomic Charges

     Atom                 Charge (a.u.)    Spin (a.u.)
  --------------------------------------------------------
      1 C                    -0.035344       0.271623
      2 C                    -0.138456      -0.046624
      3 C                     0.054169      -0.003274
      4 C                    -0.083514      -0.192373
      5 C                    -0.194061       0.425367
      6 N                    -0.192399      -0.094152
      7 H                     0.124712      -0.013265
      8 H                     0.137622       0.019196
      9 H                     0.139477       0.000524
     10 H                     0.140604       0.010792
     11 H                     0.126741      -0.022966
     12 C                    -0.222858       0.666853
     13 H                     0.143307      -0.021701
  --------------------------------------------------------
  Sum of atomic charges =     0.000000

                    Cartesian Multipole Moments
 -----------------------------------------------------------------
    Charge (ESU x 10^10)
                 0.0000
    Dipole Moment (Debye)
         X      -1.1585      Y      -2.6677      Z       0.9513
       Tot       3.0600
    Quadrupole Moments (Debye-Ang)
        XX     -38.2688     XY      -3.5583     YY     -42.8980
        XZ       0.5221     YZ       1.1380     ZZ     -43.8268

 Frequency:      -614.33                 311.31                 325.18
 Force Cnst:      1.0722                 0.1525                 0.1964
 Red. Mass:       4.8221                 2.6702                 3.1533
 IR Intens:       21.637                  1.711                  2.429
 Frequency:       479.03                 529.30                 569.62
 Force Cnst:      0.1936                 0.9278                 0.6272
 Red. Mass:       1.4316                 5.6211                 3.2809
 IR Intens:       43.518                  5.376                  8.600
 Frequency:       674.47                 751.47                 773.38
 Force Cnst:      0.8997                 0.6976                 0.6303
 Red. Mass:       3.3567                 2.0968                 1.7885
 IR Intens:        9.193                 25.541                 24.218
 Frequency:       812.92                 845.66                 902.79
 Force Cnst:      0.5772                 0.7227                 0.8530
 Red. Mass:       1.4825                 1.7152                 1.7764
 IR Intens:        5.295                  6.693                  7.306
 Frequency:       918.17                 961.34                 976.07
 Force Cnst:      0.8951                 0.9343                 1.7950
 Red. Mass:       1.8020                 1.7159                 3.1978
 IR Intens:        8.807                  8.095                  6.533
 Frequency:       988.48                1044.95                1057.29
 Force Cnst:      0.9618                 0.8955                 2.0092
 Red. Mass:       1.6707                 1.3919                 3.0506
 IR Intens:       20.325                  0.630                  2.862
 Frequency:      1099.84                1180.41                1227.16
 Force Cnst:      1.2444                 1.3494                 1.3460
 Red. Mass:       1.7460                 1.6438                 1.5170
 IR Intens:        8.487                 20.508                  0.247
 Frequency:      1299.82                1375.22                1389.74
 Force Cnst:      1.5128                 2.2833                 2.3356
 Red. Mass:       1.5197                 2.0491                 2.0525
 IR Intens:        2.324                  2.075                 10.759
 Frequency:      1424.33                1465.67                1594.14
 Force Cnst:      2.2572                 3.1399                 7.7849
 Red. Mass:       1.8884                 2.4808                 5.1994
 IR Intens:        1.702                  5.131                 23.013
 Frequency:      3125.94                3144.93                3170.03
 Force Cnst:      6.2519                 6.3525                 6.4607
 Red. Mass:       1.0859                 1.0901                 1.0912
 IR Intens:        7.384                 34.674                 16.524
 Frequency:      3178.50                3198.45                3267.30
 Force Cnst:      6.4752                 6.5911                 6.9047
 Red. Mass:       1.0878                 1.0935                 1.0978
 IR Intens:        7.829                 19.612                  0.419

 STANDARD THERMODYNAMIC QUANTITIES AT   298.15 K  AND     1.00 ATM

   This Molecule has  1 Imaginary Frequencies
   Zero point vibrational energy:       62.991 kcal/mol

   Atom    1 Element C  Has Mass   12.00000
   Atom    2 Element C  Has Mass   12.00000
   Atom    3 Element C  Has Mass   12.00000
   Atom    4 Element C  Has Mass   12.00000
   Atom    5 Element C  Has Mass   12.00000
   Atom    6 Element N  Has Mass   14.00307
   Atom    7 Element H  Has Mass    1.00783
   Atom    8 Element H  Has Mass    1.00783
   Atom    9 Element H  Has Mass    1.00783
   Atom   10 Element H  Has Mass    1.00783
   Atom   11 Element H  Has Mass    1.00783
   Atom   12 Element C  Has Mass   12.00000
   Atom   13 Element H  Has Mass    1.00783
   Molecular Mass:    92.050050 amu
   Principal axes and moments of inertia in amu*Bohr^2:
                             1           2           3
    Eigenvalues --      359.42254   492.44341   727.73935
          X               0.35996     0.92605     0.11344
          Y               0.81611    -0.37146     0.44270
          Z              -0.45210     0.06678     0.88947
   Rotational Symmetry Number is   1
   The Molecule is an Asymmetric Top
   Translational Enthalpy:        0.889 kcal/mol
   Rotational Enthalpy:           0.889 kcal/mol
   Vibrational Enthalpy:         64.402 kcal/mol
   gas constant (RT):             0.592 kcal/mol
   Translational Entropy:        39.471  cal/mol.K
   Rotational Entropy:           26.357  cal/mol.K
   Vibrational Entropy:           6.613  cal/mol.K

   Total Enthalpy:               66.772 kcal/mol
   Total Entropy:                72.441  cal/mol.K

 Total job time:  633.85s(wall), 571.00s(cpu)
        *  Thank you very much for using Q-Chem.  Have a nice day.  *
