 Q-Chem 5.0, Q-Chem, Inc., Pleasanton, CA (2017)
 Q-Chem 5.0.2 for Intel X86 EM64T Linux

User input:
--------------------------------------------------------------
$molecule
0 2
C        1.4971285170    0.4043364854   -0.4809742454
C        0.8712316258   -0.7559560188    0.2112505077
C       -0.6187106980   -0.9995608313   -0.1311495577
C       -1.2170595501    0.3474188140   -0.1832428558
C       -0.4949594280    1.4949631779   -0.5095156171
N        0.8484660758    1.4841828076   -0.7886685001
H        2.5380022331    0.3247795464   -0.7968982262
H        1.4909982005   -1.6497956151    0.2922985494
H       -1.0436744475   -1.9176221496   -0.5280554443
H       -2.2861128296    0.4260637806    0.0018067004
H       -0.9842069362    2.4645417133   -0.5179223144
C       -0.2091350227   -0.6328351261    1.2132031979
H       -0.3998047394   -0.9921564998    2.2131223519
$end

$rem
method                b3lyp
basis                 6-31g(d)
unrestricted          true
symmetry              off
sym_ignore            true
incdft                false
incfock               0
scf_convergence       8
thresh                14
jobtype               sp
scf_guess             read
scf_algorithm         diis
max_scf_cycles        100
$end

--------------------------------------------------------------

             Standard Nuclear Orientation (Angstroms)
    I     Atom           X                Y                Z
 ----------------------------------------------------------------
    1      C       1.4971285170     0.4043364854    -0.4809742454
    2      C       0.8712316258    -0.7559560188     0.2112505077
    3      C      -0.6187106980    -0.9995608313    -0.1311495577
    4      C      -1.2170595501     0.3474188140    -0.1832428558
    5      C      -0.4949594280     1.4949631779    -0.5095156171
    6      N       0.8484660758     1.4841828076    -0.7886685001
    7      H       2.5380022331     0.3247795464    -0.7968982262
    8      H       1.4909982005    -1.6497956151     0.2922985494
    9      H      -1.0436744475    -1.9176221496    -0.5280554443
   10      H      -2.2861128296     0.4260637806     0.0018067004
   11      H      -0.9842069362     2.4645417133    -0.5179223144
   12      C      -0.2091350227    -0.6328351261     1.2132031979
   13      H      -0.3998047394    -0.9921564998     2.2131223519
 ----------------------------------------------------------------

    2    -286.8342896460      3.19E-09 Convergence criterion met
 Total energy in the final basis set = -286.83428965

                    Orbital Energies (a.u.)
 --------------------------------------------------------------

 Alpha MOs
 -- Occupied --
-14.321 -10.223 -10.218 -10.218 -10.217 -10.214 -10.210  -0.945
 -0.883  -0.759  -0.651  -0.640  -0.581  -0.538  -0.484  -0.483
 -0.464  -0.425  -0.380  -0.371  -0.344  -0.300  -0.266  -0.247
 -0.164

 Beta MOs
 -- Occupied --
-14.323 -10.220 -10.219 -10.218 -10.217 -10.205 -10.204  -0.941
 -0.877  -0.753  -0.645  -0.633  -0.568  -0.533  -0.479  -0.477
 -0.461  -0.422  -0.369  -0.367  -0.338  -0.295  -0.252  -0.236

          Ground-State Mulliken Net Atomic Charges

     Atom                 Charge (a.u.)    Spin (a.u.)
  --------------------------------------------------------
      1 C                     0.087156       0.277864
      2 C                    -0.196240      -0.039308
      3 C                    -0.111297       0.027956
      4 C                    -0.149588      -0.198877
      5 C                     0.040099       0.418852
      6 N                    -0.390315      -0.102335
      7 H                     0.138038      -0.013364
      8 H                     0.148148       0.019198
      9 H                     0.151411       0.000347
     10 H                     0.150923       0.011654
     11 H                     0.137975      -0.023029
     12 C                    -0.162551       0.644520
     13 H                     0.156242      -0.023479
  --------------------------------------------------------
  Sum of atomic charges =    -0.000000

                    Cartesian Multipole Moments
 -----------------------------------------------------------------
    Charge (ESU x 10^10)
                -0.0000
    Dipole Moment (Debye)
         X      -1.1082      Y      -2.4375      Z       0.8752
       Tot       2.8170
    Quadrupole Moments (Debye-Ang)
        XX     -37.2714     XY      -3.2722     YY     -41.4035
        XZ       0.4356     YZ       0.9145     ZZ     -42.1628

 Total job time:  11.10s(wall), 7.55s(cpu)
        *  Thank you very much for using Q-Chem.  Have a nice day.  *
