 Q-Chem 5.0, Q-Chem, Inc., Pleasanton, CA (2017)
 Q-Chem 5.0.2 for Intel X86 EM64T Linux

User input:
--------------------------------------------------------------
$molecule
0 2
C        1.4971285170    0.4043364854   -0.4809742454
C        0.8712316258   -0.7559560188    0.2112505077
C       -0.6187106980   -0.9995608313   -0.1311495577
C       -1.2170595501    0.3474188140   -0.1832428558
C       -0.4949594280    1.4949631779   -0.5095156171
N        0.8484660758    1.4841828076   -0.7886685001
H        2.5380022331    0.3247795464   -0.7968982262
H        1.4909982005   -1.6497956151    0.2922985494
H       -1.0436744475   -1.9176221496   -0.5280554443
H       -2.2861128296    0.4260637806    0.0018067004
H       -0.9842069362    2.4645417133   -0.5179223144
C       -0.2091350227   -0.6328351261    1.2132031979
H       -0.3998047394   -0.9921564998    2.2131223519
$end

$rem
method                b3lyp
basis                 6-31+g(d,p)
unrestricted          true
symmetry              off
sym_ignore            true
incdft                false
incfock               0
scf_convergence       8
thresh                14
jobtype               ts
scf_guess             read
scf_algorithm         diis
max_scf_cycles        100
geom_opt_max_cycles   500
geom_opt_dmax         100
geom_opt_tol_gradient 10
geom_opt_hessian      read
$end

--------------------------------------------------------------

    2    -286.8561299852      1.13E-09 Convergence criterion met
 Total energy in the final basis set = -286.85612999
   13    -286.8561486916      5.51E-09 Convergence criterion met
 Total energy in the final basis set = -286.85614869

             Standard Nuclear Orientation (Angstroms)
    I     Atom           X                Y                Z
 ----------------------------------------------------------------
    1      C       1.4988727852     0.4027011379    -0.4822043105
    2      C       0.8727889660    -0.7570299386     0.2099487682
    3      C      -0.6190436939    -1.0007376105    -0.1343919820
    4      C      -1.2172956904     0.3456322638    -0.1822277373
    5      C      -0.4952244681     1.4964444137    -0.5061769677
    6      N       0.8482546969     1.4844884485    -0.7863441162
    7      H       2.5382650668     0.3234266003    -0.8000560796
    8      H       1.4938218481    -1.6492957101     0.2935762061
    9      H      -1.0448826706    -1.9188835231    -0.5277182865
   10      H      -2.2866398483     0.4245266081    -0.0012611791
   11      H      -0.9850855745     2.4647249097    -0.5130200792
   12      C      -0.2075910391    -0.6348300110     1.2115509524
   13      H      -0.4040773772    -0.9828075043     2.2135793577
 ----------------------------------------------------------------

    8    -286.8561487012      5.71E-09 Convergence criterion met
 Total energy in the final basis set = -286.85614870
 Final energy is   -286.856148701177
 **  OPTIMIZATION CONVERGED  **

                    Orbital Energies (a.u.)
 --------------------------------------------------------------

 Alpha MOs
 -- Occupied --
-14.335 -10.233 -10.229 -10.229 -10.227 -10.226 -10.221  -0.957
 -0.894  -0.769  -0.661  -0.650  -0.590  -0.546  -0.494  -0.491
 -0.473  -0.434  -0.390  -0.380  -0.355  -0.311  -0.277  -0.259
 -0.175

 Beta MOs
 -- Occupied --
-14.337 -10.231 -10.229 -10.228 -10.228 -10.216 -10.215  -0.953
 -0.889  -0.763  -0.655  -0.644  -0.577  -0.542  -0.488  -0.486
 -0.470  -0.431  -0.379  -0.376  -0.349  -0.306  -0.264  -0.247

          Ground-State Mulliken Net Atomic Charges

     Atom                 Charge (a.u.)    Spin (a.u.)
  --------------------------------------------------------
      1 C                    -0.037788       0.277001
      2 C                    -0.136056      -0.048159
      3 C                     0.053100      -0.002221
      4 C                    -0.084192      -0.193453
      5 C                    -0.193868       0.427457
      6 N                    -0.192988      -0.095666
      7 H                     0.124892      -0.013485
      8 H                     0.137620       0.019348
      9 H                     0.139487       0.000568
     10 H                     0.140413       0.010905
     11 H                     0.126823      -0.023044
     12 C                    -0.220840       0.662923
     13 H                     0.143396      -0.022175
  --------------------------------------------------------
  Sum of atomic charges =    -0.000000

                    Cartesian Multipole Moments
 -----------------------------------------------------------------
    Charge (ESU x 10^10)
                -0.0000
    Dipole Moment (Debye)
         X      -1.1696      Y      -2.6693      Z       0.9639
       Tot       3.0696
    Quadrupole Moments (Debye-Ang)
        XX     -38.2541     XY      -3.5742     YY     -42.9301
        XZ       0.5144     YZ       1.1480     ZZ     -43.7996

 Total job time:  97.81s(wall), 174.51s(cpu)
        *  Thank you very much for using Q-Chem.  Have a nice day.  *
