 Q-Chem 5.0, Q-Chem, Inc., Pleasanton, CA (2017)
 Q-Chem 5.0.2 for Intel X86 EM64T Linux

User input:
--------------------------------------------------------------
$molecule
0 2
C        1.5025464625    0.4066960250   -0.4703932251
C        0.8552048069   -0.7656011973    0.1734840148
C       -0.6211435937   -1.0085380319   -0.1422082840
C       -1.1952090743    0.3472176280   -0.0952648472
C       -0.4821714271    1.4983807424   -0.5272735240
N        0.8501161118    1.5017502693   -0.7753999251
H        2.5648694175    0.3675767646   -0.7043601616
H        1.4735037254   -1.6572428287    0.2635207344
H       -1.1046027839   -1.9140722812   -0.4908441885
H       -2.2705596354    0.4440456018    0.0525869299
H       -1.0060783957    2.4415197818   -0.6476970928
C       -0.2254942295   -0.5973973727    1.1962133100
H       -0.3488183838   -1.0659750165    2.1628908056
$end

$rem
method                b3lyp
basis                 6-31g(d)
unrestricted          true
symmetry              off
sym_ignore            true
incdft                false
incfock               0
scf_convergence       8
thresh                14
jobtype               freq
scf_guess             read
scf_algorithm         diis
max_scf_cycles        100
$end

--------------------------------------------------------------

             Standard Nuclear Orientation (Angstroms)
    I     Atom           X                Y                Z
 ----------------------------------------------------------------
    1      C       1.5025464625     0.4066960250    -0.4703932251
    2      C       0.8552048069    -0.7656011973     0.1734840148
    3      C      -0.6211435937    -1.0085380319    -0.1422082840
    4      C      -1.1952090743     0.3472176280    -0.0952648472
    5      C      -0.4821714271     1.4983807424    -0.5272735240
    6      N       0.8501161118     1.5017502693    -0.7753999251
    7      H       2.5648694175     0.3675767646    -0.7043601616
    8      H       1.4735037254    -1.6572428287     0.2635207344
    9      H      -1.1046027839    -1.9140722812    -0.4908441885
   10      H      -2.2705596354     0.4440456018     0.0525869299
   11      H      -1.0060783957     2.4415197818    -0.6476970928
   12      C      -0.2254942295    -0.5973973727     1.1962133100
   13      H      -0.3488183838    -1.0659750165     2.1628908056
 ----------------------------------------------------------------

    2    -286.8352522687      1.14E-09 Convergence criterion met
 Total energy in the final basis set = -286.83525227

                    Orbital Energies (a.u.)
 --------------------------------------------------------------

 Alpha MOs
 -- Occupied --
-14.320 -10.226 -10.219 -10.217 -10.216 -10.216 -10.213  -0.948
 -0.887  -0.757  -0.650  -0.640  -0.581  -0.541  -0.483  -0.478
 -0.465  -0.420  -0.387  -0.370  -0.340  -0.306  -0.272  -0.238
 -0.166

 Beta MOs
 -- Occupied --
-14.322 -10.228 -10.216 -10.215 -10.213 -10.211 -10.205  -0.943
 -0.883  -0.749  -0.644  -0.632  -0.571  -0.538  -0.478  -0.472
 -0.462  -0.417  -0.374  -0.365  -0.332  -0.299  -0.261  -0.232

          Ground-State Mulliken Net Atomic Charges

     Atom                 Charge (a.u.)    Spin (a.u.)
  --------------------------------------------------------
      1 C                     0.082925       0.417873
      2 C                    -0.207697      -0.036801
      3 C                    -0.082802       0.052266
      4 C                    -0.178355      -0.173960
      5 C                     0.058538       0.527081
      6 N                    -0.392907      -0.158621
      7 H                     0.137231      -0.021721
      8 H                     0.146609       0.008223
      9 H                     0.151237      -0.003024
     10 H                     0.151060       0.009044
     11 H                     0.138100      -0.028992
     12 C                    -0.162306       0.421817
     13 H                     0.158366      -0.013185
  --------------------------------------------------------
  Sum of atomic charges =     0.000000

                    Cartesian Multipole Moments
 -----------------------------------------------------------------
    Charge (ESU x 10^10)
                 0.0000
    Dipole Moment (Debye)
         X      -1.2674      Y      -2.5106      Z       0.7897
       Tot       2.9212
    Quadrupole Moments (Debye-Ang)
        XX     -37.1357     XY      -3.4167     YY     -41.4223
        XZ       0.8301     YZ       0.3987     ZZ     -42.3164

 Frequency:      -625.61                 279.12                 354.32
 Force Cnst:      1.1817                 0.1109                 0.3065
 Red. Mass:       5.1243                 2.4165                 4.1441
 IR Intens:       14.347                  0.367                  1.399
 Frequency:       533.55                 586.54                 640.03
 Force Cnst:      1.0515                 0.5483                 0.3799
 Red. Mass:       6.2695                 2.7052                 1.5739
 IR Intens:        3.428                 15.459                 53.571
 Frequency:       665.07                 732.10                 765.35
 Force Cnst:      0.7188                 0.5588                 0.6069
 Red. Mass:       2.7582                 1.7697                 1.7584
 IR Intens:        0.344                 16.158                  2.359
 Frequency:       807.92                 811.87                 888.19
 Force Cnst:      0.6413                 0.5474                 1.5425
 Red. Mass:       1.6677                 1.4095                 3.3187
 IR Intens:       11.255                  6.767                 11.087
 Frequency:       918.46                 970.58                 990.59
 Force Cnst:      0.7228                 0.9219                 1.7231
 Red. Mass:       1.4542                 1.6611                 2.9803
 IR Intens:        0.243                  8.991                  1.084
 Frequency:      1029.32                1044.38                1053.37
 Force Cnst:      1.0277                 1.6020                 1.0927
 Red. Mass:       1.6463                 2.4928                 1.6714
 IR Intens:       28.128                  9.795                  0.817
 Frequency:      1103.12                1183.66                1235.10
 Force Cnst:      1.0818                 1.5814                 1.6449
 Red. Mass:       1.5088                 1.9158                 1.8302
 IR Intens:        7.903                 18.135                  1.828
 Frequency:      1301.63                1326.00                1395.84
 Force Cnst:      1.7291                 3.2714                 1.7328
 Red. Mass:       1.7322                 3.1579                 1.5095
 IR Intens:        1.690                  3.464                  6.402
 Frequency:      1421.17                1476.84                1549.69
 Force Cnst:      2.2578                 2.8201                 4.7117
 Red. Mass:       1.8973                 2.1945                 3.3300
 IR Intens:        0.646                  5.530                 16.751
 Frequency:      3158.70                3170.75                3176.14
 Force Cnst:      6.3861                 6.4431                 6.4788
 Red. Mass:       1.0863                 1.0877                 1.0900
 IR Intens:        8.485                  5.436                 41.845
 Frequency:      3208.05                3211.84                3258.79
 Force Cnst:      6.6134                 6.6437                 6.8604
 Red. Mass:       1.0907                 1.0931                 1.0964
 IR Intens:       27.826                 12.313                  0.314

 STANDARD THERMODYNAMIC QUANTITIES AT   298.15 K  AND     1.00 ATM

   This Molecule has  1 Imaginary Frequencies
   Zero point vibrational energy:       63.256 kcal/mol

   Atom    1 Element C  Has Mass   12.00000
   Atom    2 Element C  Has Mass   12.00000
   Atom    3 Element C  Has Mass   12.00000
   Atom    4 Element C  Has Mass   12.00000
   Atom    5 Element C  Has Mass   12.00000
   Atom    6 Element N  Has Mass   14.00307
   Atom    7 Element H  Has Mass    1.00783
   Atom    8 Element H  Has Mass    1.00783
   Atom    9 Element H  Has Mass    1.00783
   Atom   10 Element H  Has Mass    1.00783
   Atom   11 Element H  Has Mass    1.00783
   Atom   12 Element C  Has Mass   12.00000
   Atom   13 Element H  Has Mass    1.00783
   Molecular Mass:    92.050050 amu
   Principal axes and moments of inertia in amu*Bohr^2:
                             1           2           3
    Eigenvalues --      353.31043   492.34159   724.85308
          X               0.38087     0.91590     0.12675
          Y               0.81231    -0.39693     0.42731
          Z              -0.44169     0.05979     0.89517
   Rotational Symmetry Number is   1
   The Molecule is an Asymmetric Top
   Translational Enthalpy:        0.889 kcal/mol
   Rotational Enthalpy:           0.889 kcal/mol
   Vibrational Enthalpy:         64.612 kcal/mol
   gas constant (RT):             0.592 kcal/mol
   Translational Entropy:        39.471  cal/mol.K
   Rotational Entropy:           26.336  cal/mol.K
   Vibrational Entropy:           6.347  cal/mol.K

   Total Enthalpy:               66.982 kcal/mol
   Total Entropy:                72.153  cal/mol.K

 Total job time:  318.54s(wall), 268.20s(cpu)
        *  Thank you very much for using Q-Chem.  Have a nice day.  *
