 Q-Chem 5.0, Q-Chem, Inc., Pleasanton, CA (2017)
 Q-Chem 5.0.2 for Intel X86 EM64T Linux

User input:
--------------------------------------------------------------
$molecule
0 2
C        1.4988727852    0.4027011379   -0.4822043105
C        0.8727889660   -0.7570299386    0.2099487682
C       -0.6190436939   -1.0007376105   -0.1343919820
C       -1.2172956904    0.3456322638   -0.1822277373
C       -0.4952244681    1.4964444137   -0.5061769677
N        0.8482546969    1.4844884485   -0.7863441162
H        2.5382650668    0.3234266003   -0.8000560796
H        1.4938218481   -1.6492957101    0.2935762061
H       -1.0448826706   -1.9188835231   -0.5277182865
H       -2.2866398483    0.4245266081   -0.0012611791
H       -0.9850855745    2.4647249097   -0.5130200792
C       -0.2075910391   -0.6348300110    1.2115509524
H       -0.4040773772   -0.9828075043    2.2135793577
$end

$rem
method                b3lyp
basis                 6-31+g(d,p)
unrestricted          true
symmetry              off
sym_ignore            true
incdft                false
incfock               0
scf_convergence       8
thresh                14
jobtype               freq
scf_guess             read
scf_algorithm         diis
max_scf_cycles        100
$end

--------------------------------------------------------------

             Standard Nuclear Orientation (Angstroms)
    I     Atom           X                Y                Z
 ----------------------------------------------------------------
    1      C       1.4988727852     0.4027011379    -0.4822043105
    2      C       0.8727889660    -0.7570299386     0.2099487682
    3      C      -0.6190436939    -1.0007376105    -0.1343919820
    4      C      -1.2172956904     0.3456322638    -0.1822277373
    5      C      -0.4952244681     1.4964444137    -0.5061769677
    6      N       0.8482546969     1.4844884485    -0.7863441162
    7      H       2.5382650668     0.3234266003    -0.8000560796
    8      H       1.4938218481    -1.6492957101     0.2935762061
    9      H      -1.0448826706    -1.9188835231    -0.5277182865
   10      H      -2.2866398483     0.4245266081    -0.0012611791
   11      H      -0.9850855745     2.4647249097    -0.5130200792
   12      C      -0.2075910391    -0.6348300110     1.2115509524
   13      H      -0.4040773772    -0.9828075043     2.2135793577
 ----------------------------------------------------------------

    2    -286.8561487012      1.14E-09 Convergence criterion met
 Total energy in the final basis set = -286.85614870

                    Orbital Energies (a.u.)
 --------------------------------------------------------------

 Alpha MOs
 -- Occupied --
-14.335 -10.233 -10.229 -10.229 -10.227 -10.226 -10.221  -0.957
 -0.894  -0.769  -0.661  -0.650  -0.590  -0.546  -0.494  -0.491
 -0.473  -0.434  -0.390  -0.380  -0.355  -0.311  -0.277  -0.259
 -0.175

 Beta MOs
 -- Occupied --
-14.337 -10.231 -10.229 -10.228 -10.228 -10.216 -10.215  -0.953
 -0.889  -0.763  -0.655  -0.644  -0.577  -0.542  -0.488  -0.486
 -0.470  -0.431  -0.379  -0.376  -0.349  -0.306  -0.264  -0.247

          Ground-State Mulliken Net Atomic Charges

     Atom                 Charge (a.u.)    Spin (a.u.)
  --------------------------------------------------------
      1 C                    -0.037788       0.277005
      2 C                    -0.136056      -0.048160
      3 C                     0.053100      -0.002221
      4 C                    -0.084192      -0.193454
      5 C                    -0.193868       0.427458
      6 N                    -0.192988      -0.095669
      7 H                     0.124891      -0.013485
      8 H                     0.137620       0.019348
      9 H                     0.139487       0.000568
     10 H                     0.140413       0.010906
     11 H                     0.126823      -0.023044
     12 C                    -0.220840       0.662921
     13 H                     0.143396      -0.022174
  --------------------------------------------------------
  Sum of atomic charges =    -0.000000

                    Cartesian Multipole Moments
 -----------------------------------------------------------------
    Charge (ESU x 10^10)
                -0.0000
    Dipole Moment (Debye)
         X      -1.1696      Y      -2.6693      Z       0.9639
       Tot       3.0696
    Quadrupole Moments (Debye-Ang)
        XX     -38.2541     XY      -3.5742     YY     -42.9301
        XZ       0.5144     YZ       1.1480     ZZ     -43.7996

 Frequency:      -615.41                 312.22                 325.27
 Force Cnst:      1.0898                 0.1503                 0.1867
 Red. Mass:       4.8839                 2.6160                 2.9953
 IR Intens:       21.228                  2.103                  2.603
 Frequency:       462.04                 529.48                 569.82
 Force Cnst:      0.1836                 0.9334                 0.6186
 Red. Mass:       1.4598                 5.6508                 3.2335
 IR Intens:       41.914                  5.173                  9.002
 Frequency:       673.39                 747.03                 768.53
 Force Cnst:      0.8731                 0.6992                 0.6326
 Red. Mass:       3.2682                 2.1265                 1.8179
 IR Intens:       10.078                 25.033                 23.707
 Frequency:       811.96                 841.42                 900.20
 Force Cnst:      0.5692                 0.7042                 0.8452
 Red. Mass:       1.4654                 1.6882                 1.7703
 IR Intens:        5.599                  6.703                  7.186
 Frequency:       914.99                 959.24                 974.67
 Force Cnst:      0.9105                 0.9241                 1.8120
 Red. Mass:       1.8459                 1.7045                 3.2374
 IR Intens:        8.660                  8.076                  7.263
 Frequency:       984.76                1042.10                1056.61
 Force Cnst:      0.9652                 0.8821                 2.0768
 Red. Mass:       1.6892                 1.3786                 3.1573
 IR Intens:       18.993                  0.636                  2.870
 Frequency:      1097.88                1177.62                1224.51
 Force Cnst:      1.2361                 1.3403                 1.3535
 Red. Mass:       1.7406                 1.6404                 1.5321
 IR Intens:        8.423                 20.422                  0.359
 Frequency:      1297.40                1370.37                1386.32
 Force Cnst:      1.5094                 2.4822                 2.1461
 Red. Mass:       1.5220                 2.2434                 1.8953
 IR Intens:        2.225                  2.596                 10.312
 Frequency:      1421.15                1462.38                1586.16
 Force Cnst:      2.2781                 3.0545                 7.5212
 Red. Mass:       1.9145                 2.4242                 5.0739
 IR Intens:        1.652                  5.207                 22.682
 Frequency:      3130.06                3152.75                3177.73
 Force Cnst:      6.2693                 6.3832                 6.4848
 Red. Mass:       1.0861                 1.0899                 1.0900
 IR Intens:        9.135                 32.296                 12.434
 Frequency:      3183.67                3206.14                3275.13
 Force Cnst:      6.5066                 6.6191                 6.9377
 Red. Mass:       1.0896                 1.0929                 1.0978
 IR Intens:       12.403                 18.234                  0.622

 STANDARD THERMODYNAMIC QUANTITIES AT   298.15 K  AND     1.00 ATM

   This Molecule has  1 Imaginary Frequencies
   Zero point vibrational energy:       62.934 kcal/mol

   Atom    1 Element C  Has Mass   12.00000
   Atom    2 Element C  Has Mass   12.00000
   Atom    3 Element C  Has Mass   12.00000
   Atom    4 Element C  Has Mass   12.00000
   Atom    5 Element C  Has Mass   12.00000
   Atom    6 Element N  Has Mass   14.00307
   Atom    7 Element H  Has Mass    1.00783
   Atom    8 Element H  Has Mass    1.00783
   Atom    9 Element H  Has Mass    1.00783
   Atom   10 Element H  Has Mass    1.00783
   Atom   11 Element H  Has Mass    1.00783
   Atom   12 Element C  Has Mass   12.00000
   Atom   13 Element H  Has Mass    1.00783
   Molecular Mass:    92.050050 amu
   Principal axes and moments of inertia in amu*Bohr^2:
                             1           2           3
    Eigenvalues --      360.05382   492.37592   727.93095
          X               0.36065     0.92572     0.11393
          Y               0.81667    -0.37242     0.44086
          Z              -0.45054     0.06595     0.89032
   Rotational Symmetry Number is   1
   The Molecule is an Asymmetric Top
   Translational Enthalpy:        0.889 kcal/mol
   Rotational Enthalpy:           0.889 kcal/mol
   Vibrational Enthalpy:         64.358 kcal/mol
   gas constant (RT):             0.592 kcal/mol
   Translational Entropy:        39.471  cal/mol.K
   Rotational Entropy:           26.359  cal/mol.K
   Vibrational Entropy:           6.678  cal/mol.K

   Total Enthalpy:               66.728 kcal/mol
   Total Entropy:                72.508  cal/mol.K

 Total job time:  653.22s(wall), 575.44s(cpu)
        *  Thank you very much for using Q-Chem.  Have a nice day.  *
