 Q-Chem 5.0, Q-Chem, Inc., Pleasanton, CA (2017)
 Q-Chem 5.0.2 for Intel X86 EM64T Linux

User input:
--------------------------------------------------------------
$molecule
0 2
C        1.5025464625    0.4066960250   -0.4703932251
C        0.8552048069   -0.7656011973    0.1734840148
C       -0.6211435937   -1.0085380319   -0.1422082840
C       -1.1952090743    0.3472176280   -0.0952648472
C       -0.4821714271    1.4983807424   -0.5272735240
N        0.8501161118    1.5017502693   -0.7753999251
H        2.5648694175    0.3675767646   -0.7043601616
H        1.4735037254   -1.6572428287    0.2635207344
H       -1.1046027839   -1.9140722812   -0.4908441885
H       -2.2705596354    0.4440456018    0.0525869299
H       -1.0060783957    2.4415197818   -0.6476970928
C       -0.2254942295   -0.5973973727    1.1962133100
H       -0.3488183838   -1.0659750165    2.1628908056
$end

$rem
method                b3lyp
basis                 6-31g(d)
unrestricted          true
symmetry              off
sym_ignore            true
incdft                false
incfock               0
scf_convergence       8
thresh                14
jobtype               sp
scf_guess             core
scf_guess_mix         5
scf_algorithm         diis
max_scf_cycles        100
$end

--------------------------------------------------------------

             Standard Nuclear Orientation (Angstroms)
    I     Atom           X                Y                Z
 ----------------------------------------------------------------
    1      C       1.5025464625     0.4066960250    -0.4703932251
    2      C       0.8552048069    -0.7656011973     0.1734840148
    3      C      -0.6211435937    -1.0085380319    -0.1422082840
    4      C      -1.1952090743     0.3472176280    -0.0952648472
    5      C      -0.4821714271     1.4983807424    -0.5272735240
    6      N       0.8501161118     1.5017502693    -0.7753999251
    7      H       2.5648694175     0.3675767646    -0.7043601616
    8      H       1.4735037254    -1.6572428287     0.2635207344
    9      H      -1.1046027839    -1.9140722812    -0.4908441885
   10      H      -2.2705596354     0.4440456018     0.0525869299
   11      H      -1.0060783957     2.4415197818    -0.6476970928
   12      C      -0.2254942295    -0.5973973727     1.1962133100
   13      H      -0.3488183838    -1.0659750165     2.1628908056
 ----------------------------------------------------------------

   21    -286.8352522686      8.11E-09 Convergence criterion met
 Total energy in the final basis set = -286.83525227

                    Orbital Energies (a.u.)
 --------------------------------------------------------------

 Alpha MOs
 -- Occupied --
-14.320 -10.226 -10.219 -10.217 -10.216 -10.216 -10.213  -0.948
 -0.887  -0.757  -0.650  -0.640  -0.581  -0.541  -0.483  -0.478
 -0.465  -0.420  -0.387  -0.370  -0.340  -0.306  -0.272  -0.238
 -0.166

 Beta MOs
 -- Occupied --
-14.322 -10.228 -10.216 -10.215 -10.213 -10.211 -10.205  -0.943
 -0.883  -0.749  -0.644  -0.632  -0.571  -0.538  -0.478  -0.472
 -0.462  -0.417  -0.374  -0.365  -0.332  -0.299  -0.261  -0.232

          Ground-State Mulliken Net Atomic Charges

     Atom                 Charge (a.u.)    Spin (a.u.)
  --------------------------------------------------------
      1 C                     0.082925       0.417874
      2 C                    -0.207697      -0.036801
      3 C                    -0.082802       0.052266
      4 C                    -0.178355      -0.173960
      5 C                     0.058538       0.527083
      6 N                    -0.392907      -0.158623
      7 H                     0.137231      -0.021721
      8 H                     0.146609       0.008222
      9 H                     0.151237      -0.003024
     10 H                     0.151060       0.009045
     11 H                     0.138100      -0.028993
     12 C                    -0.162306       0.421816
     13 H                     0.158366      -0.013185
  --------------------------------------------------------
  Sum of atomic charges =     0.000000

                    Cartesian Multipole Moments
 -----------------------------------------------------------------
    Charge (ESU x 10^10)
                 0.0000
    Dipole Moment (Debye)
         X      -1.2674      Y      -2.5106      Z       0.7897
       Tot       2.9212
    Quadrupole Moments (Debye-Ang)
        XX     -37.1357     XY      -3.4167     YY     -41.4223
        XZ       0.8301     YZ       0.3987     ZZ     -42.3164

 Total job time:  46.66s(wall), 56.85s(cpu)
        *  Thank you very much for using Q-Chem.  Have a nice day.  *
