 Q-Chem 5.0, Q-Chem, Inc., Pleasanton, CA (2017)
 Q-Chem 5.0.2 for Intel X86 EM64T Linux

User input:
--------------------------------------------------------------
$molecule
0 2
C        1.4988727852    0.4027011379   -0.4822043105
C        0.8727889660   -0.7570299386    0.2099487682
C       -0.6190436939   -1.0007376105   -0.1343919820
C       -1.2172956904    0.3456322638   -0.1822277373
C       -0.4952244681    1.4964444137   -0.5061769677
N        0.8482546969    1.4844884485   -0.7863441162
H        2.5382650668    0.3234266003   -0.8000560796
H        1.4938218481   -1.6492957101    0.2935762061
H       -1.0448826706   -1.9188835231   -0.5277182865
H       -2.2866398483    0.4245266081   -0.0012611791
H       -0.9850855745    2.4647249097   -0.5130200792
C       -0.2075910391   -0.6348300110    1.2115509524
H       -0.4040773772   -0.9828075043    2.2135793577
$end

$rem
method                b3lyp
basis                 6-31+g(d,p)
unrestricted          true
symmetry              off
sym_ignore            true
incdft                false
incfock               0
scf_convergence       8
thresh                14
jobtype               sp
scf_guess             read
scf_algorithm         diis
max_scf_cycles        100
$end

--------------------------------------------------------------

             Standard Nuclear Orientation (Angstroms)
    I     Atom           X                Y                Z
 ----------------------------------------------------------------
    1      C       1.4988727852     0.4027011379    -0.4822043105
    2      C       0.8727889660    -0.7570299386     0.2099487682
    3      C      -0.6190436939    -1.0007376105    -0.1343919820
    4      C      -1.2172956904     0.3456322638    -0.1822277373
    5      C      -0.4952244681     1.4964444137    -0.5061769677
    6      N       0.8482546969     1.4844884485    -0.7863441162
    7      H       2.5382650668     0.3234266003    -0.8000560796
    8      H       1.4938218481    -1.6492957101     0.2935762061
    9      H      -1.0448826706    -1.9188835231    -0.5277182865
   10      H      -2.2866398483     0.4245266081    -0.0012611791
   11      H      -0.9850855745     2.4647249097    -0.5130200792
   12      C      -0.2075910391    -0.6348300110     1.2115509524
   13      H      -0.4040773772    -0.9828075043     2.2135793577
 ----------------------------------------------------------------

    2    -286.8561487012      5.56E-09 Convergence criterion met
 Total energy in the final basis set = -286.85614870

                    Orbital Energies (a.u.)
 --------------------------------------------------------------

 Alpha MOs
 -- Occupied --
-14.335 -10.233 -10.229 -10.229 -10.227 -10.226 -10.221  -0.957
 -0.894  -0.769  -0.661  -0.650  -0.590  -0.546  -0.494  -0.491
 -0.473  -0.434  -0.390  -0.380  -0.355  -0.311  -0.277  -0.259
 -0.175

 Beta MOs
 -- Occupied --
-14.337 -10.231 -10.229 -10.228 -10.228 -10.216 -10.215  -0.953
 -0.889  -0.763  -0.655  -0.644  -0.577  -0.542  -0.488  -0.486
 -0.470  -0.431  -0.379  -0.376  -0.349  -0.306  -0.264  -0.247

          Ground-State Mulliken Net Atomic Charges

     Atom                 Charge (a.u.)    Spin (a.u.)
  --------------------------------------------------------
      1 C                    -0.037788       0.277003
      2 C                    -0.136056      -0.048159
      3 C                     0.053100      -0.002221
      4 C                    -0.084192      -0.193453
      5 C                    -0.193868       0.427458
      6 N                    -0.192988      -0.095667
      7 H                     0.124891      -0.013485
      8 H                     0.137620       0.019348
      9 H                     0.139487       0.000568
     10 H                     0.140413       0.010905
     11 H                     0.126823      -0.023044
     12 C                    -0.220840       0.662922
     13 H                     0.143396      -0.022175
  --------------------------------------------------------
  Sum of atomic charges =    -0.000000

                    Cartesian Multipole Moments
 -----------------------------------------------------------------
    Charge (ESU x 10^10)
                -0.0000
    Dipole Moment (Debye)
         X      -1.1696      Y      -2.6693      Z       0.9639
       Tot       3.0696
    Quadrupole Moments (Debye-Ang)
        XX     -38.2541     XY      -3.5742     YY     -42.9301
        XZ       0.5144     YZ       1.1480     ZZ     -43.7996

 Total job time:  12.94s(wall), 12.03s(cpu)
        *  Thank you very much for using Q-Chem.  Have a nice day.  *
