 Q-Chem 5.0, Q-Chem, Inc., Pleasanton, CA (2017)
 Q-Chem 5.0.2 for Intel X86 EM64T Linux

User input:
--------------------------------------------------------------
$molecule
0 2
C        1.7054428653    0.3427337479   -2.5592189031
C        1.4199894520   -1.0394777100   -2.4100059413
C       -0.2846022109   -1.3367934532   -2.4793873081
C       -1.2168688993    0.3380421392   -1.1984595748
C       -0.6647844372    1.2691796745   -2.3750155793
N        0.6571754202    1.2437152259   -2.7583796002
H        2.5034278168    0.9828995487   -2.8684121870
H        2.1341937929   -1.8730148869   -2.4024045461
H       -0.4498622001   -1.0799725105   -3.5473359766
H       -0.9513113694    0.8257123320   -0.2260402972
H       -1.3827807282    1.7951761765   -2.9897430582
C       -1.7318307474   -0.9767020271   -1.2398052181
H       -2.0826967612   -1.8393015745   -0.4817195734
$end

$rem
method                b3lyp
basis                 6-31g(d)
unrestricted          true
symmetry              off
sym_ignore            true
incdft                false
incfock               0
scf_convergence       8
thresh                14
jobtype               opt
scf_guess             read
scf_algorithm         diis
max_scf_cycles        100
geom_opt_tol_gradient 600
geom_opt_tol_displacement 2400
geom_opt_tol_energy   200
geom_opt_max_cycles   100
$end

--------------------------------------------------------------

    2    -286.6523577294      4.08E-09 Convergence criterion met
 Total energy in the final basis set = -286.65235773
   18    -286.7084285802      4.25E-09 Convergence criterion met
 Total energy in the final basis set = -286.70842858
   17    -286.7534209116      7.29E-09 Convergence criterion met
 Total energy in the final basis set = -286.75342091
   17    -286.7880553400      4.23E-09 Convergence criterion met
 Total energy in the final basis set = -286.78805534
   16    -286.8130524150      8.16E-09 Convergence criterion met
 Total energy in the final basis set = -286.81305241
   16    -286.8296286782      3.90E-09 Convergence criterion met
 Total energy in the final basis set = -286.82962868
   15    -286.8411117822      5.05E-09 Convergence criterion met
 Total energy in the final basis set = -286.84111178
   15    -286.8501124817      3.94E-09 Convergence criterion met
   15    -286.9242370961      8.58E-09 Convergence criterion met
 Total energy in the final basis set = -286.92423710
   15    -286.9243065943      6.63E-09 Convergence criterion met
 Total energy in the final basis set = -286.92430659
   14    -286.9243211369      8.48E-09 Convergence criterion met
 Total energy in the final basis set = -286.92432114
   14    -286.9243255658      3.55E-09 Convergence criterion met
 Total energy in the final basis set = -286.92432557
   13    -286.9243280822      5.08E-09 Convergence criterion met
 Total energy in the final basis set = -286.92432808
   12    -286.9243302771      7.40E-09 Convergence criterion met
 Total energy in the final basis set = -286.92433028

             Standard Nuclear Orientation (Angstroms)
    I     Atom           X                Y                Z
 ----------------------------------------------------------------
    1      C       1.4464160495     0.3816553843    -2.7910527911
    2      C       1.1371488664    -0.9610795784    -2.6850769410
    3      C      -0.0571238934    -1.5600389040    -2.1458407949
    4      C      -1.3092522919     0.5143482513    -1.4988897216
    5      C      -0.4390114673     1.5180675301    -1.8811244210
    6      N       0.7871780475     1.5151278526    -2.4532575557
    7      H       2.4200667401     0.5933786966    -3.2386825126
    8      H       1.8931518623    -1.6485196494    -3.0569228254
    9      H      -0.0910496578    -2.6475273471    -2.1629642657
   10      H      -2.2420764376     0.8470050718    -1.0500852987
   11      H      -0.7970689726     2.5319445477    -1.6886420602
   12      C      -1.1352840720    -0.9102477665    -1.6242974023
   13      H      -1.9576027797    -1.5219174063    -1.2590911733
 ----------------------------------------------------------------

   13    -286.9243325561      4.81E-09 Convergence criterion met
 Total energy in the final basis set = -286.92433256
 Final energy is   -286.924332556070
 **  OPTIMIZATION CONVERGED  **

                    Orbital Energies (a.u.)
 --------------------------------------------------------------

 Alpha MOs
 -- Occupied --
-14.322 -10.232 -10.232 -10.212 -10.211 -10.201 -10.200  -0.922
 -0.818  -0.784  -0.693  -0.667  -0.551  -0.537  -0.518  -0.449
 -0.439  -0.414  -0.394  -0.387  -0.349  -0.322  -0.299  -0.251
 -0.162

 Beta MOs
 -- Occupied --
-14.314 -10.233 -10.233 -10.210 -10.210 -10.196 -10.196  -0.911
 -0.809  -0.777  -0.681  -0.665  -0.546  -0.535  -0.514  -0.447
 -0.438  -0.411  -0.383  -0.373  -0.347  -0.295  -0.276  -0.241

          Ground-State Mulliken Net Atomic Charges

     Atom                 Charge (a.u.)    Spin (a.u.)
  --------------------------------------------------------
      1 C                     0.035178      -0.111696
      2 C                    -0.131284       0.345338
      3 C                    -0.111468       0.095590
      4 C                    -0.131683       0.348729
      5 C                     0.035741      -0.113565
      6 N                    -0.423260       0.386958
      7 H                     0.142630       0.003355
      8 H                     0.134417      -0.018255
      9 H                     0.141851      -0.006725
     10 H                     0.134340      -0.018416
     11 H                     0.142534       0.003449
     12 C                    -0.110964       0.091779
     13 H                     0.141967      -0.006541
  --------------------------------------------------------
  Sum of atomic charges =    -0.000000

                    Cartesian Multipole Moments
 -----------------------------------------------------------------
    Charge (ESU x 10^10)
                -0.0000
    Dipole Moment (Debye)
         X      -0.9911      Y      -1.9718      Z       0.4070
       Tot       2.2440
    Quadrupole Moments (Debye-Ang)
        XX     -37.4258     XY      -2.8796     YY     -40.1156
        XZ      -0.7399     YZ       5.6365     ZZ     -43.7215

 Total job time:  1301.29s(wall), 1602.86s(cpu)
        *  Thank you very much for using Q-Chem.  Have a nice day.  *
