 Q-Chem 5.0, Q-Chem, Inc., Pleasanton, CA (2017)
 Q-Chem 5.0.2 for Intel X86 EM64T Linux

User input:
--------------------------------------------------------------
$molecule
0 2
C        1.2055780378    0.1841777103    0.2113397718
C        0.7011930802   -1.1125093138   -0.4428680324
C       -0.6428956001   -1.0610442749   -0.4217674658
C       -1.0242747328    0.2665953407    0.2658455417
C       -0.4501532803    1.3805360264   -0.6310356952
N        0.8258924642    1.3493328889   -0.6876338794
H        2.2565302692    0.2187168464    0.4905250332
H        1.3341129080   -1.8907843106   -0.8526404414
H       -1.3505158891   -1.7757713849   -0.8263355910
H       -2.0548076402    0.3720326229    0.6036214505
H       -1.0437269409    2.1080811837   -1.1805589626
C        0.1247833438    0.2787993010    1.2810820808
H        0.1182839802   -0.3181626357    2.1904261903
$end

$rem
method                b3lyp
basis                 6-31+g(d,p)
unrestricted          true
symmetry              off
sym_ignore            true
incdft                false
incfock               0
scf_convergence       6
thresh                14
jobtype               sp
scf_guess             read
scf_algorithm         diis
max_scf_cycles        100
stability_analysis    true
max_cis_cycles        100
cis_n_roots           4
$end

--------------------------------------------------------------

             Standard Nuclear Orientation (Angstroms)
    I     Atom           X                Y                Z
 ----------------------------------------------------------------
    1      C       1.2055780378     0.1841777103     0.2113397718
    2      C       0.7011930802    -1.1125093138    -0.4428680324
    3      C      -0.6428956001    -1.0610442749    -0.4217674658
    4      C      -1.0242747328     0.2665953407     0.2658455417
    5      C      -0.4501532803     1.3805360264    -0.6310356952
    6      N       0.8258924642     1.3493328889    -0.6876338794
    7      H       2.2565302692     0.2187168464     0.4905250332
    8      H       1.3341129080    -1.8907843106    -0.8526404414
    9      H      -1.3505158891    -1.7757713849    -0.8263355910
   10      H      -2.0548076402     0.3720326229     0.6036214505
   11      H      -1.0437269409     2.1080811837    -1.1805589626
   12      C       0.1247833438     0.2787993010     1.2810820808
   13      H       0.1182839802    -0.3181626357     2.1904261903
 ----------------------------------------------------------------

    2    -286.8734530743      2.03E-09 Convergence criterion met
 Total energy in the final basis set = -286.87345307

         TDDFT/TDA Excitation Energies
 ---------------------------------------------------

 Excited state   1: excitation energy (eV) =    3.1036
 Total energy for state  1:                  -286.75939694 au
    <S**2>     :  1.1522
    Trans. Mom.:  0.1011 X  -0.0379 Y   0.0481 Z
    Strength   :     0.0010618441
    S(  1) --> V(  1) amplitude =  0.9400 alpha
    D( 23) --> V(  1) amplitude = -0.1771 beta
    D( 24) --> V(  1) amplitude =  0.1548 beta

 Excited state   2: excitation energy (eV) =    4.1357
 Total energy for state  2:                  -286.72146733 au
    <S**2>     :  1.7059
    Trans. Mom.:  0.0075 X   0.0275 Y   0.0616 Z
    Strength   :     0.0004674249
    D( 22) --> V(  1) amplitude = -0.1981 alpha
    D( 24) --> V(  1) amplitude =  0.3044 alpha
    S(  1) --> V(  1) amplitude =  0.1734 alpha
    S(  1) --> V(  2) amplitude =  0.5041 alpha
    S(  1) --> V(  3) amplitude =  0.2134 alpha
    D( 22) --> V(  1) amplitude =  0.1774 beta
    D( 23) --> S(  1) amplitude =  0.2259 beta
    D( 23) --> V(  3) amplitude = -0.1961 beta
    D( 24) --> S(  1) amplitude =  0.4495 beta
    D( 24) --> V(  1) amplitude = -0.3379 beta

 Excited state   3: excitation energy (eV) =    4.2575
 Total energy for state  3:                  -286.71699209 au
    <S**2>     :  1.7146
    Trans. Mom.:  0.0380 X   0.1112 Y   0.0605 Z
    Strength   :     0.0018212669
    D( 22) --> V(  1) amplitude =  0.1663 alpha
    D( 24) --> V(  1) amplitude =  0.3274 alpha
    S(  1) --> V(  2) amplitude = -0.4608 alpha
    S(  1) --> V(  3) amplitude = -0.2011 alpha
    D( 22) --> V(  1) amplitude = -0.1754 beta
    D( 23) --> S(  1) amplitude =  0.2356 beta
    D( 23) --> V(  1) amplitude = -0.2934 beta
    D( 24) --> S(  1) amplitude =  0.5270 beta
    D( 24) --> V(  3) amplitude = -0.2239 beta

 Excited state   4: excitation energy (eV) =    4.3710
 Total energy for state  4:                  -286.71282181 au
    <S**2>     :  2.1799
    Trans. Mom.: -0.0645 X  -0.0880 Y  -0.1988 Z
    Strength   :     0.0055085858
    D( 22) --> V(  1) amplitude = -0.2105 alpha
    D( 22) --> V(  2) amplitude = -0.1658 alpha
    D( 23) --> V(  1) amplitude = -0.5204 alpha
    S(  1) --> V(  1) amplitude = -0.2093 alpha
    D( 22) --> S(  1) amplitude = -0.1654 beta
    D( 22) --> V(  1) amplitude =  0.2689 beta
    D( 22) --> V(  3) amplitude =  0.1596 beta
    D( 23) --> S(  1) amplitude =  0.4071 beta
    D( 23) --> V(  1) amplitude = -0.3897 beta
    D( 24) --> S(  1) amplitude = -0.2517 beta
    D( 24) --> V(  1) amplitude =  0.1931 beta

 ---------------------------------------------------

                    Orbital Energies (a.u.)
 --------------------------------------------------------------

 Alpha MOs
 -- Occupied --
-14.337 -10.235 -10.231 -10.221 -10.216 -10.213 -10.209  -0.965
 -0.833  -0.737  -0.715  -0.589  -0.583  -0.539  -0.520  -0.481
 -0.429  -0.420  -0.391  -0.382  -0.358  -0.305  -0.283  -0.271
 -0.206

 Beta MOs
 -- Occupied --
-14.336 -10.235 -10.231 -10.221 -10.211 -10.208 -10.202  -0.961
 -0.827  -0.735  -0.700  -0.587  -0.571  -0.536  -0.517  -0.472
 -0.426  -0.416  -0.389  -0.379  -0.352  -0.298  -0.273  -0.268

          Ground-State Mulliken Net Atomic Charges

     Atom                 Charge (a.u.)    Spin (a.u.)
  --------------------------------------------------------
      1 C                     0.022616      -0.089099
      2 C                    -0.146718       0.044687
      3 C                    -0.127862       0.095695
      4 C                     0.008645      -0.060816
      5 C                    -0.091424      -0.031673
      6 N                    -0.203486       0.025859
      7 H                     0.129359       0.003596
      8 H                     0.138799       0.000731
      9 H                     0.138395       0.000104
     10 H                     0.124778       0.003449
     11 H                     0.137330      -0.000085
     12 C                    -0.269247       1.033705
     13 H                     0.138814      -0.026153
  --------------------------------------------------------
  Sum of atomic charges =     0.000000

                    Cartesian Multipole Moments
 -----------------------------------------------------------------
    Charge (ESU x 10^10)
                 0.0000
    Dipole Moment (Debye)
         X      -1.6756      Y      -1.8957      Z       0.5537
       Tot       2.5900
    Quadrupole Moments (Debye-Ang)
        XX     -38.6510     XY      -4.2867     YY     -43.6716
        XZ       2.3950     YZ       1.0572     ZZ     -43.1420

 Total job time:  265.99s(wall), 212.99s(cpu)
        *  Thank you very much for using Q-Chem.  Have a nice day.  *
