 Q-Chem 5.0, Q-Chem, Inc., Pleasanton, CA (2017)
 Q-Chem 5.0.2 for Intel X86 EM64T Linux

User input:
--------------------------------------------------------------
$molecule
0 2
C        1.2584822354    0.3164438936    0.0865559111
C        0.5979072681   -1.1278880067   -0.0834035327
C       -0.7730719271   -1.0246632016   -0.5592494543
C       -1.0373097221    0.2330139246    0.2645803952
C       -0.5239470686    1.3852493684   -0.5918747669
N        0.7543391302    1.3950458714   -0.7252482598
H        2.3213406786    0.3044773379    0.3014341402
H        1.2601104007   -1.9865217759   -0.1063006015
H       -1.3029118093   -1.4628244767   -1.3997880263
H       -2.0067212743    0.3585624280    0.7500180765
H       -1.1622689805    2.0660484955   -1.1516420647
C        0.2544347252   -0.1568619970    1.0722710225
H        0.3596163438   -0.3000818616    2.1426471607
$end

$rem
method                b3lyp
basis                 6-31+g(d,p)
unrestricted          true
symmetry              off
sym_ignore            true
incdft                false
incfock               0
scf_convergence       6
thresh                14
jobtype               sp
scf_guess             read
scf_algorithm         diis
max_scf_cycles        100
stability_analysis    true
max_cis_cycles        100
cis_n_roots           4
$end

--------------------------------------------------------------

             Standard Nuclear Orientation (Angstroms)
    I     Atom           X                Y                Z
 ----------------------------------------------------------------
    1      C       1.2584822354     0.3164438936     0.0865559111
    2      C       0.5979072681    -1.1278880067    -0.0834035327
    3      C      -0.7730719271    -1.0246632016    -0.5592494543
    4      C      -1.0373097221     0.2330139246     0.2645803952
    5      C      -0.5239470686     1.3852493684    -0.5918747669
    6      N       0.7543391302     1.3950458714    -0.7252482598
    7      H       2.3213406786     0.3044773379     0.3014341402
    8      H       1.2601104007    -1.9865217759    -0.1063006015
    9      H      -1.3029118093    -1.4628244767    -1.3997880263
   10      H      -2.0067212743     0.3585624280     0.7500180765
   11      H      -1.1622689805     2.0660484955    -1.1516420647
   12      C       0.2544347252    -0.1568619970     1.0722710225
   13      H       0.3596163438    -0.3000818616     2.1426471607
 ----------------------------------------------------------------

    2    -286.8593334815      1.11E-09 Convergence criterion met
 Total energy in the final basis set = -286.85933348

         TDDFT/TDA Excitation Energies
 ---------------------------------------------------

 Excited state   1: excitation energy (eV) =    3.4276
 Total energy for state  1:                  -286.73337176 au
    <S**2>     :  0.9289
    Trans. Mom.:  0.0034 X   0.4246 Y  -0.1004 Z
    Strength   :     0.0159888913
    S(  1) --> V(  1) amplitude =  0.9257 alpha
    D( 23) --> S(  1) amplitude = -0.3241 beta

 Excited state   2: excitation energy (eV) =    3.6357
 Total energy for state  2:                  -286.72572416 au
    <S**2>     :  1.2392
    Trans. Mom.: -0.0532 X   0.0407 Y   0.0578 Z
    Strength   :     0.0006966128
    D( 24) --> V(  1) amplitude = -0.2674 alpha
    D( 24) --> S(  1) amplitude =  0.9218 beta
    D( 24) --> V(  1) amplitude =  0.1540 beta

 Excited state   3: excitation energy (eV) =    4.1487
 Total energy for state  3:                  -286.70687261 au
    <S**2>     :  0.9420
    Trans. Mom.:  0.1675 X   0.4848 Y  -0.0073 Z
    Strength   :     0.0267471776
    S(  1) --> V(  1) amplitude =  0.3329 alpha
    D( 23) --> S(  1) amplitude =  0.8884 beta
    D( 23) --> V(  1) amplitude =  0.1779 beta

 Excited state   4: excitation energy (eV) =    4.2998
 Total energy for state  4:                  -286.70131753 au
    <S**2>     :  0.8080
    Trans. Mom.: -0.0080 X  -0.0616 Y   0.1455 Z
    Strength   :     0.0026369044
    S(  1) --> V(  2) amplitude =  0.9829 alpha

 ---------------------------------------------------

                    Orbital Energies (a.u.)
 --------------------------------------------------------------

 Alpha MOs
 -- Occupied --
-14.334 -10.234 -10.230 -10.220 -10.219 -10.219 -10.216  -0.979
 -0.867  -0.759  -0.674  -0.615  -0.580  -0.544  -0.524  -0.475
 -0.448  -0.415  -0.410  -0.366  -0.346  -0.309  -0.285  -0.268
 -0.188

 Beta MOs
 -- Occupied --
-14.333 -10.232 -10.229 -10.221 -10.220 -10.217 -10.204  -0.975
 -0.861  -0.751  -0.662  -0.611  -0.576  -0.537  -0.518  -0.469
 -0.444  -0.412  -0.404  -0.358  -0.342  -0.302  -0.274  -0.262

          Ground-State Mulliken Net Atomic Charges

     Atom                 Charge (a.u.)    Spin (a.u.)
  --------------------------------------------------------
      1 C                    -0.291012       0.103677
      2 C                    -0.053181      -0.154865
      3 C                    -0.154566       0.979274
      4 C                    -0.026696      -0.115245
      5 C                    -0.051370       0.053774
      6 N                    -0.171345       0.035510
      7 H                     0.144242       0.003566
      8 H                     0.138610       0.005197
      9 H                     0.130790      -0.022850
     10 H                     0.133652       0.023576
     11 H                     0.131172       0.001073
     12 C                    -0.063725       0.087044
     13 H                     0.133429       0.000267
  --------------------------------------------------------
  Sum of atomic charges =    -0.000000

                    Cartesian Multipole Moments
 -----------------------------------------------------------------
    Charge (ESU x 10^10)
                -0.0000
    Dipole Moment (Debye)
         X      -1.1289      Y      -1.4584      Z       1.3680
       Tot       2.2963
    Quadrupole Moments (Debye-Ang)
        XX     -38.9019     XY      -4.8495     YY     -44.4236
        XZ       3.1258     YZ       1.9656     ZZ     -41.7445

 Total job time:  240.16s(wall), 199.34s(cpu)
        *  Thank you very much for using Q-Chem.  Have a nice day.  *
