 Q-Chem 5.0, Q-Chem, Inc., Pleasanton, CA (2017)
 Q-Chem 5.0.2 for Intel X86 EM64T Linux

User input:
--------------------------------------------------------------
$molecule
0 2
C        1.4682868321    0.4430805743   -0.3533865526
C        0.8844022873   -0.7856752825    0.2151865042
C       -0.7449520357   -0.8069154899    0.1733851284
C       -1.3123418507    0.4543349172   -0.3313042279
C       -0.5485538449    1.5422439192   -0.5750737492
N        0.8458281931    1.5355327297   -0.6342302106
H        2.5297900783    0.3980229984   -0.6089834874
H        1.4422790578   -1.6995033966    0.0014279069
H       -1.2580007387   -1.7281406933   -0.1086990447
H       -2.3831085016    0.4873436658   -0.5171458804
H       -1.0036800811    2.4809373004   -0.8802618728
C        0.0353959252   -0.7960443043    1.4088119362
H        0.0446546791   -1.5252169379    2.2102735501
****
C        1.2551885738    0.3055587644    0.0805748096
C        0.5872717795   -1.1360963016   -0.0725624373
C       -0.7823960568   -1.0229322859   -0.5556883492
C       -1.0363338108    0.2323675066    0.2760045962
C       -0.5231415214    1.3792541931   -0.5866263006
N        0.7518488814    1.3842409081   -0.7323961386
H        2.3199680237    0.2902754207    0.2896156472
H        1.2447417021   -1.9996360286   -0.0938346510
H       -1.2756023844   -1.3921447015   -1.4518250255
H       -2.0029412583    0.3589462274    0.7685038427
H       -1.1658816107    2.0573585386   -1.1458516048
C        0.2566240795   -0.1643717476    1.0759371643
H        0.3706536024   -0.2928204938    2.1481484469
$end

$rem
method                b3lyp
basis                 6-31g(d)
unrestricted          true
symmetry              off
sym_ignore            true
incdft                false
incfock               0
scf_convergence       8
thresh                14
jobtype               fsm
scf_guess             core
scf_guess_mix         5
scf_algorithm         diis
max_scf_cycles        100
fsm_nnode             21
fsm_ngrad             6
fsm_mode              2
fsm_opt_mode          2
$end

--------------------------------------------------------------

   20    -286.8549501785      8.18E-09 Convergence criterion met
 Total energy in the final basis set = -286.85495018
   20    -286.8383129434      8.33E-09 Convergence criterion met
 Total energy in the final basis set = -286.83831294
   21    -286.8526250637      4.74E-09 Convergence criterion met
 Total energy in the final basis set = -286.85262506
   21    -286.8524723991      4.51E-09 Convergence criterion met
 Total energy in the final basis set = -286.85247240
   22    -286.8504472404      4.08E-09 Convergence criterion met
 Total energy in the final basis set = -286.85044724
   21    -286.8521816174      6.28E-09 Convergence criterion met
 Total energy in the final basis set = -286.85218162
   21    -286.8353336858      4.65E-09 Convergence criterion met
 Total energy in the final basis set = -286.83533369
   20    -286.8359445679      6.61E-09 Convergence criterion met
 Total energy in the final basis set = -286.77130623
   25    -286.7698495082      3.49E-09 Convergence criterion met
 Total energy in the final basis set = -286.76984951
   24    -286.7713081526      7.87E-09 Convergence criterion met
 Total energy in the final basis set = -286.77130815
   25    -286.7698490534      3.49E-09 Convergence criterion met
 Total energy in the final basis set = -286.76984905
   24    -286.7713101222      7.85E-09 Convergence criterion met
 Total energy in the final basis set = -286.77131012
   25    -286.7698480934      3.50E-09 Convergence criterion met
 Total energy in the final basis set = -286.76984809
   24    -286.7713184068      7.76E-09 Convergence criterion met
 Total energy in the final basis set = -286.77131841
   25    -286.7698406368      3.51E-09 Convergence criterion met
 Total energy in the final basis set = -286.76984064

                    Orbital Energies (a.u.)
 --------------------------------------------------------------

 Alpha MOs
 -- Occupied --
-14.325 -10.242 -10.241 -10.226 -10.223 -10.205 -10.191  -0.954
 -0.859  -0.751  -0.638  -0.626  -0.590  -0.534  -0.488  -0.451
 -0.445  -0.420  -0.400  -0.354  -0.334  -0.311  -0.270  -0.247
 -0.131

 Beta MOs
 -- Occupied --
-14.325 -10.241 -10.238 -10.227 -10.222 -10.205 -10.178  -0.951
 -0.850  -0.745  -0.623  -0.620  -0.586  -0.529  -0.483  -0.447
 -0.436  -0.417  -0.395  -0.349  -0.327  -0.296  -0.263  -0.243

          Ground-State Mulliken Net Atomic Charges

     Atom                 Charge (a.u.)    Spin (a.u.)
  --------------------------------------------------------
      1 C                    -0.013422       0.071607
      2 C                    -0.150310      -0.034234
      3 C                    -0.096507       0.906920
      4 C                    -0.260239      -0.043802
      5 C                     0.116176       0.035503
      6 N                    -0.343047      -0.000588
      7 H                     0.154507       0.010532
      8 H                     0.146988       0.002140
      9 H                     0.140342      -0.047988
     10 H                     0.136123       0.006242
     11 H                     0.145931       0.003812
     12 C                    -0.134717       0.080107
     13 H                     0.158174       0.009750
  --------------------------------------------------------
  Sum of atomic charges =    -0.000000

                    Cartesian Multipole Moments
 -----------------------------------------------------------------
    Charge (ESU x 10^10)
                -0.0000
    Dipole Moment (Debye)
         X      -0.9310      Y      -1.7893      Z       1.0742
       Tot       2.2852
    Quadrupole Moments (Debye-Ang)
        XX     -37.3499     XY      -4.2664     YY     -41.4469
        XZ       1.4397     YZ      -0.6363     ZZ     -42.6375

             Standard Nuclear Orientation (Angstroms)
    I     Atom           X                Y                Z
 ----------------------------------------------------------------
    1      C       1.3330909344     0.3451915530    -0.0295625002
    2      C       0.6653534387    -1.0082130837    -0.1126171246
    3      C      -0.7399892168    -1.0149462784    -0.5129873173
    4      C      -1.1279057404     0.3073813230     0.0793849602
    5      C      -0.4805224829     1.4724794616    -0.5972945737
    6      N       0.7990610977     1.4856192549    -0.6721529640
    7      H       2.4224974222     0.3652098374     0.0658887410
    8      H       1.3293051093    -1.8746137160    -0.0698918321
    9      H      -1.3629902135    -1.8698990047    -0.7285805944
   10      H      -2.1887818873     0.4878354428     0.3106099395
   11      H      -1.0518929446     2.3297196736    -0.9609717920
   12      C       0.2088156735    -0.2565443124     1.1149653831
   13      H       0.1674038425    -0.7771549042     2.0876103197
 ----------------------------------------------------------------

 Total job time:  5467.20s(wall), 5622.63s(cpu)
        *  Thank you very much for using Q-Chem.  Have a nice day.  *
