 Q-Chem 5.0, Q-Chem, Inc., Pleasanton, CA (2017)
 Q-Chem 5.0.2 for Intel X86 EM64T Linux

User input:
--------------------------------------------------------------
$molecule
0 2
C        1.2352670858    0.2596110477    0.1255060269
C        0.6573289154   -1.0915557138   -0.2955557500
C       -0.7191752190   -1.0073278654   -0.5614387008
C       -1.0352552025    0.2521756727    0.2438727148
C       -0.4852356739    1.4078067731   -0.5951908566
N        0.7955421762    1.3952070252   -0.6955569389
H        2.2876475939    0.2600803744    0.3939789715
H        1.3007070506   -1.9585180293   -0.4179014216
H       -1.3770456482   -1.6947316074   -1.0744961142
H       -2.0343617207    0.3561705185    0.6657073998
H       -1.0998080705    2.1077920302   -1.1572097344
C        0.1910008986   -0.0059579413    1.1506710021
H        0.2568328471   -0.2886870376    2.1920140467
$end

$rem
method                b3lyp
basis                 6-31+g(d,p)
unrestricted          true
symmetry              off
sym_ignore            true
incdft                false
incfock               0
scf_convergence       8
thresh                14
jobtype               rpath
scf_guess             core
scf_guess_mix         5
scf_algorithm         diis
max_scf_cycles        100
rpath_direction       1
rpath_tol_displacement 1000
rpath_max_cycles      50
geom_opt_max_cycles   300
geom_opt_hessian      read
$end

--------------------------------------------------------------

   22    -286.8475748202      6.53E-09 Convergence criterion met
 Total energy in the final basis set = -286.84757482
   22    -286.8493029445      4.13E-09 Convergence criterion met
 Total energy in the final basis set = -286.84930294
   22    -286.8492743013      3.73E-09 Convergence criterion met
 Total energy in the final basis set = -286.84927430
   22    -286.8493053566      4.04E-09 Convergence criterion met
 Total energy in the final basis set = -286.84930536
   21    -286.8538988822      8.40E-09 Convergence criterion met
 Total energy in the final basis set = -286.85389888
   21    -286.8538498513      8.45E-09 Convergence criterion met
 Total energy in the final basis set = -286.85384985
   21    -286.8539069800      8.39E-09 Convergence criterion met
 Total energy in the final basis set = -286.85390698
   22    -286.8592977336      2.73E-09 Convergence criterion met
 Total energy in the final basis set = -286.85173220
   21    -286.8593349862      4.76E-09 Convergence criterion met
 Total energy in the final basis set = -286.85933499
   21    -286.8593327869      5.30E-09 Convergence criterion met
 Total energy in the final basis set = -286.85933279
   21    -286.8593354747      4.79E-09 Convergence criterion met
 Total energy in the final basis set = -286.85933547
   21    -286.8572005846      4.88E-09 Convergence criterion met
 Total energy in the final basis set = -286.85720058
   21    -286.8593389988      4.79E-09 Convergence criterion met
 Total energy in the final basis set = -286.85933900
   21    -286.8593382694      5.27E-09 Convergence criterion met
 Total energy in the final basis set = -286.85933827
   21    -286.8593400265      4.80E-09 Convergence criterion met
 Total energy in the final basis set = -286.85934003

                    Orbital Energies (a.u.)
 --------------------------------------------------------------

 Alpha MOs
 -- Occupied --
-14.334 -10.234 -10.230 -10.220 -10.219 -10.219 -10.216  -0.979
 -0.867  -0.759  -0.674  -0.616  -0.580  -0.544  -0.524  -0.475
 -0.448  -0.415  -0.410  -0.366  -0.346  -0.309  -0.285  -0.267
 -0.188

 Beta MOs
 -- Occupied --
-14.333 -10.232 -10.229 -10.221 -10.220 -10.217 -10.204  -0.975
 -0.861  -0.751  -0.662  -0.611  -0.576  -0.537  -0.518  -0.469
 -0.444  -0.412  -0.404  -0.358  -0.342  -0.302  -0.274  -0.262

          Ground-State Mulliken Net Atomic Charges

     Atom                 Charge (a.u.)    Spin (a.u.)
  --------------------------------------------------------
      1 C                    -0.290952       0.103671
      2 C                    -0.052791      -0.154869
      3 C                    -0.154788       0.979469
      4 C                    -0.026974      -0.115274
      5 C                    -0.051167       0.053732
      6 N                    -0.171403       0.035609
      7 H                     0.144247       0.003568
      8 H                     0.138617       0.005195
      9 H                     0.130760      -0.022837
     10 H                     0.133655       0.023595
     11 H                     0.131176       0.001067
     12 C                    -0.063781       0.086820
     13 H                     0.133402       0.000255
  --------------------------------------------------------
  Sum of atomic charges =    -0.000000

                    Cartesian Multipole Moments
 -----------------------------------------------------------------
    Charge (ESU x 10^10)
                -0.0000
    Dipole Moment (Debye)
         X      -1.1258      Y      -1.4531      Z       1.3726
       Tot       2.2941
    Quadrupole Moments (Debye-Ang)
        XX     -38.8912     XY      -4.8472     YY     -44.3951
        XZ       3.1222     YZ       1.9832     ZZ     -41.7780

             Standard Nuclear Orientation (Angstroms)
    I     Atom           X                Y                Z
 ----------------------------------------------------------------
    1      C       1.2352670858     0.2596110477     0.1255060269
    2      C       0.6573289154    -1.0915557138    -0.2955557500
    3      C      -0.7191752190    -1.0073278654    -0.5614387008
    4      C      -1.0352552025     0.2521756727     0.2438727148
    5      C      -0.4852356739     1.4078067731    -0.5951908566
    6      N       0.7955421762     1.3952070252    -0.6955569389
    7      H       2.2876475939     0.2600803744     0.3939789715
    8      H       1.3007070506    -1.9585180293    -0.4179014216
    9      H      -1.3770456482    -1.6947316074    -1.0744961142
   10      H      -2.0343617207     0.3561705185     0.6657073998
   11      H      -1.0998080705     2.1077920302    -1.1572097344
   12      C       0.1910008986    -0.0059579413     1.1506710021
   13      H       0.2568328471    -0.2886870376     2.1920140467
 ----------------------------------------------------------------

 Total job time:  13050.97s(wall), 31083.56s(cpu)
        *  Thank you very much for using Q-Chem.  Have a nice day.  *
