 Q-Chem 5.0, Q-Chem, Inc., Pleasanton, CA (2017)
 Q-Chem 5.0.2 for Intel X86 EM64T Linux

User input:
--------------------------------------------------------------
$molecule
0 2
C        1.2554438109    0.3051387786    0.0798865210
C        0.5870576059   -1.1365746071   -0.0716404274
C       -0.7817308566   -1.0226423988   -0.5568615767
C       -1.0364777726    0.2319706169    0.2756994479
C       -0.5232097290    1.3795709905   -0.5854999817
N        0.7516877554    1.3833881429   -0.7332607110
H        2.3203727176    0.2896940281    0.2881425752
H        1.2443411958   -2.0002469418   -0.0922502474
H       -1.2747494198   -1.3919856153   -1.4530726234
H       -2.0030793770    0.3576662782    0.7685436230
H       -1.1661554240    2.0583343054   -1.1436336877
C        0.2567306395   -0.1634896600    1.0757518213
H        0.3697688540   -0.2908239177    2.1481952668
$end

$rem
method                b3lyp
basis                 6-31g(d)
unrestricted          true
symmetry              off
sym_ignore            true
incdft                false
incfock               0
scf_convergence       8
thresh                14
jobtype               opt
scf_guess             core
scf_guess_mix         5
scf_algorithm         diis
max_scf_cycles        100
geom_opt_max_cycles   300
$end

--------------------------------------------------------------

   20    -286.8383124882      8.17E-09 Convergence criterion met
 Total energy in the final basis set = -286.83831249

             Standard Nuclear Orientation (Angstroms)
    I     Atom           X                Y                Z
 ----------------------------------------------------------------
    1      C       1.2551885738     0.3055587644     0.0805748096
    2      C       0.5872717795    -1.1360963016    -0.0725624373
    3      C      -0.7823960568    -1.0229322859    -0.5556883492
    4      C      -1.0363338108     0.2323675066     0.2760045962
    5      C      -0.5231415214     1.3792541931    -0.5866263006
    6      N       0.7518488814     1.3842409081    -0.7323961386
    7      H       2.3199680237     0.2902754207     0.2896156472
    8      H       1.2447417021    -1.9996360286    -0.0938346510
    9      H      -1.2756023844    -1.3921447015    -1.4518250255
   10      H      -2.0029412583     0.3589462274     0.7685038427
   11      H      -1.1658816107     2.0573585386    -1.1458516048
   12      C       0.2566240795    -0.1643717476     1.0759371643
   13      H       0.3706536024    -0.2928204938     2.1481484469
 ----------------------------------------------------------------

   16    -286.8383129690      9.26E-09 Convergence criterion met
 Total energy in the final basis set = -286.83831297
 Final energy is   -286.838312969023
 **  OPTIMIZATION CONVERGED  **

                    Orbital Energies (a.u.)
 --------------------------------------------------------------

 Alpha MOs
 -- Occupied --
-14.320 -10.224 -10.220 -10.210 -10.209 -10.208 -10.206  -0.968
 -0.856  -0.749  -0.664  -0.606  -0.571  -0.535  -0.516  -0.467
 -0.439  -0.405  -0.400  -0.356  -0.336  -0.298  -0.274  -0.256
 -0.182

 Beta MOs
 -- Occupied --
-14.319 -10.222 -10.219 -10.211 -10.209 -10.207 -10.193  -0.964
 -0.850  -0.741  -0.652  -0.601  -0.567  -0.528  -0.511  -0.461
 -0.434  -0.402  -0.394  -0.348  -0.332  -0.291  -0.262  -0.251

          Ground-State Mulliken Net Atomic Charges

     Atom                 Charge (a.u.)    Spin (a.u.)
  --------------------------------------------------------
      1 C                    -0.019021       0.096742
      2 C                    -0.163215      -0.095804
      3 C                    -0.066732       0.888153
      4 C                    -0.257932      -0.065628
      5 C                     0.088580       0.046946
      6 N                    -0.342179       0.039381
      7 H                     0.151397       0.002857
      8 H                     0.147225       0.005274
      9 H                     0.136206      -0.019174
     10 H                     0.142814       0.022695
     11 H                     0.143067       0.001377
     12 C                    -0.108317       0.077979
     13 H                     0.148107      -0.000799
  --------------------------------------------------------
  Sum of atomic charges =     0.000000

                    Cartesian Multipole Moments
 -----------------------------------------------------------------
    Charge (ESU x 10^10)
                 0.0000
    Dipole Moment (Debye)
         X      -1.0328      Y      -1.2956      Z       1.2047
       Tot       2.0486
    Quadrupole Moments (Debye-Ang)
        XX     -38.0961     XY      -4.3117     YY     -42.8517
        XZ       2.8761     YZ       1.6701     ZZ     -40.3754

 Total job time:  111.82s(wall), 115.11s(cpu)
        *  Thank you very much for using Q-Chem.  Have a nice day.  *
