 Q-Chem 5.0, Q-Chem, Inc., Pleasanton, CA (2017)
 Q-Chem 5.0.2 for Intel X86 EM64T Linux

User input:
--------------------------------------------------------------
$molecule
0 2
C        1.2352670858    0.2596110477    0.1255060269
C        0.6573289154   -1.0915557138   -0.2955557500
C       -0.7191752190   -1.0073278654   -0.5614387008
C       -1.0352552025    0.2521756727    0.2438727148
C       -0.4852356739    1.4078067731   -0.5951908566
N        0.7955421762    1.3952070252   -0.6955569389
H        2.2876475939    0.2600803744    0.3939789715
H        1.3007070506   -1.9585180293   -0.4179014216
H       -1.3770456482   -1.6947316074   -1.0744961142
H       -2.0343617207    0.3561705185    0.6657073998
H       -1.0998080705    2.1077920302   -1.1572097344
C        0.1910008986   -0.0059579413    1.1506710021
H        0.2568328471   -0.2886870376    2.1920140467
$end

$rem
method                b3lyp
basis                 6-31+g(d,p)
unrestricted          true
symmetry              off
sym_ignore            true
incdft                false
incfock               0
scf_convergence       8
thresh                14
jobtype               freq
scf_guess             read
scf_algorithm         diis
max_scf_cycles        100
$end

--------------------------------------------------------------

             Standard Nuclear Orientation (Angstroms)
    I     Atom           X                Y                Z
 ----------------------------------------------------------------
    1      C       1.2352670858     0.2596110477     0.1255060269
    2      C       0.6573289154    -1.0915557138    -0.2955557500
    3      C      -0.7191752190    -1.0073278654    -0.5614387008
    4      C      -1.0352552025     0.2521756727     0.2438727148
    5      C      -0.4852356739     1.4078067731    -0.5951908566
    6      N       0.7955421762     1.3952070252    -0.6955569389
    7      H       2.2876475939     0.2600803744     0.3939789715
    8      H       1.3007070506    -1.9585180293    -0.4179014216
    9      H      -1.3770456482    -1.6947316074    -1.0744961142
   10      H      -2.0343617207     0.3561705185     0.6657073998
   11      H      -1.0998080705     2.1077920302    -1.1572097344
   12      C       0.1910008986    -0.0059579413     1.1506710021
   13      H       0.2568328471    -0.2886870376     2.1920140467
 ----------------------------------------------------------------

    2    -286.8475748203      6.24E-10 Convergence criterion met
 Total energy in the final basis set = -286.84757482

                    Orbital Energies (a.u.)
 --------------------------------------------------------------

 Alpha MOs
 -- Occupied --
-14.330 -10.235 -10.230 -10.229 -10.226 -10.221 -10.206  -0.972
 -0.849  -0.751  -0.696  -0.601  -0.585  -0.548  -0.522  -0.472
 -0.444  -0.424  -0.409  -0.378  -0.356  -0.296  -0.284  -0.277
 -0.157

 Beta MOs
 -- Occupied --
-14.329 -10.235 -10.231 -10.230 -10.222 -10.217 -10.197  -0.968
 -0.842  -0.747  -0.684  -0.598  -0.577  -0.541  -0.519  -0.463
 -0.441  -0.419  -0.406  -0.373  -0.351  -0.287  -0.275  -0.265

          Ground-State Mulliken Net Atomic Charges

     Atom                 Charge (a.u.)    Spin (a.u.)
  --------------------------------------------------------
      1 C                    -0.133340      -0.021223
      2 C                    -0.103200      -0.233030
      3 C                    -0.140895       0.726756
      4 C                     0.002027      -0.102324
      5 C                    -0.069538      -0.002384
      6 N                    -0.179717       0.062185
      7 H                     0.138891       0.004341
      8 H                     0.139224       0.010320
      9 H                     0.139084      -0.028757
     10 H                     0.129135       0.010560
     11 H                     0.132688       0.001552
     12 C                    -0.200333       0.596530
     13 H                     0.145974      -0.024524
  --------------------------------------------------------
  Sum of atomic charges =    -0.000000

                    Cartesian Multipole Moments
 -----------------------------------------------------------------
    Charge (ESU x 10^10)
                -0.0000
    Dipole Moment (Debye)
         X      -1.2130      Y      -1.8169      Z       1.4150
       Tot       2.6029
    Quadrupole Moments (Debye-Ang)
        XX     -38.6536     XY      -4.7667     YY     -43.9583
        XZ       2.6033     YZ       1.6589     ZZ     -42.7568

 Frequency:      -655.77                 339.27                 399.08
 Force Cnst:      1.3760                 0.0796                 0.1072
 Red. Mass:       5.4309                 1.1732                 1.1421
 IR Intens:       34.902                 22.117                 28.445
 Frequency:       439.41                 483.74                 606.89
 Force Cnst:      0.4207                 0.5131                 0.9930
 Red. Mass:       3.6982                 3.7217                 4.5757
 IR Intens:        7.428                  6.245                 14.930
 Frequency:       741.47                 784.96                 827.25
 Force Cnst:      1.9312                 2.5662                 0.8700
 Red. Mass:       5.9618                 7.0686                 2.1578
 IR Intens:        3.472                  4.949                 17.024
 Frequency:       852.39                 882.54                 894.06
 Force Cnst:      1.7573                 1.0177                 0.6876
 Red. Mass:       4.1050                 2.2178                 1.4599
 IR Intens:       10.129                  8.351                  2.912
 Frequency:       914.18                 926.46                 958.36
 Force Cnst:      0.9797                 0.8325                 1.0964
 Red. Mass:       1.9896                 1.6461                 2.0260
 IR Intens:        1.646                 19.766                  2.476
 Frequency:       973.03                1026.56                1083.72
 Force Cnst:      1.1190                 1.2818                 1.2133
 Red. Mass:       2.0059                 2.0643                 1.7535
 IR Intens:        2.390                  3.949                  5.304
 Frequency:      1139.88                1175.22                1216.22
 Force Cnst:      1.2798                 1.4796                 1.3470
 Red. Mass:       1.6718                 1.8183                 1.5455
 IR Intens:       15.282                  1.726                  5.731
 Frequency:      1242.76                1271.45                1317.70
 Force Cnst:      1.4578                 1.1960                 1.5752
 Red. Mass:       1.6021                 1.2557                 1.5398
 IR Intens:        6.758                  1.031                  4.391
 Frequency:      1320.91                1403.21                1626.62
 Force Cnst:      1.7838                 3.1398                11.7400
 Red. Mass:       1.7352                 2.7065                 7.5309
 IR Intens:       17.916                  1.646                 44.110
 Frequency:      3146.88                3184.18                3185.44
 Force Cnst:      6.3602                 6.5167                 6.5376
 Red. Mass:       1.0901                 1.0909                 1.0935
 IR Intens:       17.757                 19.870                  7.632
 Frequency:      3195.34                3258.15                3263.62
 Force Cnst:      6.5738                 6.8487                 6.8811
 Red. Mass:       1.0928                 1.0950                 1.0965
 IR Intens:       18.926                  1.112                  0.537

 STANDARD THERMODYNAMIC QUANTITIES AT   298.15 K  AND     1.00 ATM

   This Molecule has  1 Imaginary Frequencies
   Zero point vibrational energy:       63.017 kcal/mol

   Atom    1 Element C  Has Mass   12.00000
   Atom    2 Element C  Has Mass   12.00000
   Atom    3 Element C  Has Mass   12.00000
   Atom    4 Element C  Has Mass   12.00000
   Atom    5 Element C  Has Mass   12.00000
   Atom    6 Element N  Has Mass   14.00307
   Atom    7 Element H  Has Mass    1.00783
   Atom    8 Element H  Has Mass    1.00783
   Atom    9 Element H  Has Mass    1.00783
   Atom   10 Element H  Has Mass    1.00783
   Atom   11 Element H  Has Mass    1.00783
   Atom   12 Element C  Has Mass   12.00000
   Atom   13 Element H  Has Mass    1.00783
   Molecular Mass:    92.050050 amu
   Principal axes and moments of inertia in amu*Bohr^2:
                             1           2           3
    Eigenvalues --      376.95897   456.66820   566.65002
          X               0.14397     0.98286    -0.11513
          Y               0.97011    -0.11722     0.21247
          Z              -0.19533     0.14228     0.97036
   Rotational Symmetry Number is   1
   The Molecule is an Asymmetric Top
   Translational Enthalpy:        0.889 kcal/mol
   Rotational Enthalpy:           0.889 kcal/mol
   Vibrational Enthalpy:         64.356 kcal/mol
   gas constant (RT):             0.592 kcal/mol
   Translational Entropy:        39.471  cal/mol.K
   Rotational Entropy:           26.081  cal/mol.K
   Vibrational Entropy:           6.177  cal/mol.K

   Total Enthalpy:               66.726 kcal/mol
   Total Entropy:                71.729  cal/mol.K

 Total job time:  664.91s(wall), 589.88s(cpu)
        *  Thank you very much for using Q-Chem.  Have a nice day.  *
