 Q-Chem 5.0, Q-Chem, Inc., Pleasanton, CA (2017)
 Q-Chem 5.0.2 for Intel X86 EM64T Linux

User input:
--------------------------------------------------------------
$molecule
0 2
C        1.3330909344    0.3451915530   -0.0295625002
C        0.6653534387   -1.0082130837   -0.1126171246
C       -0.7399892168   -1.0149462784   -0.5129873173
C       -1.1279057404    0.3073813230    0.0793849602
C       -0.4805224829    1.4724794616   -0.5972945737
N        0.7990610977    1.4856192549   -0.6721529640
H        2.4224974222    0.3652098374    0.0658887410
H        1.3293051093   -1.8746137160   -0.0698918321
H       -1.3629902135   -1.8698990047   -0.7285805944
H       -2.1887818873    0.4878354428    0.3106099395
H       -1.0518929446    2.3297196736   -0.9609717920
C        0.2088156735   -0.2565443124    1.1149653831
H        0.1674038425   -0.7771549042    2.0876103197
$end

$rem
method                b3lyp
basis                 6-31g(d)
unrestricted          true
symmetry              off
sym_ignore            true
incdft                false
incfock               0
scf_convergence       8
thresh                14
jobtype               freq
scf_guess             read
scf_algorithm         diis
max_scf_cycles        100
$end

--------------------------------------------------------------

             Standard Nuclear Orientation (Angstroms)
    I     Atom           X                Y                Z
 ----------------------------------------------------------------
    1      C       1.3330909344     0.3451915530    -0.0295625002
    2      C       0.6653534387    -1.0082130837    -0.1126171246
    3      C      -0.7399892168    -1.0149462784    -0.5129873173
    4      C      -1.1279057404     0.3073813230     0.0793849602
    5      C      -0.4805224829     1.4724794616    -0.5972945737
    6      N       0.7990610977     1.4856192549    -0.6721529640
    7      H       2.4224974222     0.3652098374     0.0658887410
    8      H       1.3293051093    -1.8746137160    -0.0698918321
    9      H      -1.3629902135    -1.8698990047    -0.7285805944
   10      H      -2.1887818873     0.4878354428     0.3106099395
   11      H      -1.0518929446     2.3297196736    -0.9609717920
   12      C       0.2088156735    -0.2565443124     1.1149653831
   13      H       0.1674038425    -0.7771549042     2.0876103197
 ----------------------------------------------------------------

    2    -286.7863233559      1.56E-09 Convergence criterion met
 Total energy in the final basis set = -286.78632336

                    Orbital Energies (a.u.)
 --------------------------------------------------------------

 Alpha MOs
 -- Occupied --
-14.325 -10.241 -10.233 -10.223 -10.221 -10.205 -10.189  -0.958
 -0.858  -0.753  -0.641  -0.623  -0.590  -0.536  -0.490  -0.451
 -0.446  -0.420  -0.402  -0.354  -0.330  -0.312  -0.271  -0.250
 -0.137

 Beta MOs
 -- Occupied --
-14.325 -10.240 -10.230 -10.223 -10.221 -10.205 -10.177  -0.955
 -0.850  -0.747  -0.625  -0.620  -0.585  -0.531  -0.486  -0.448
 -0.437  -0.417  -0.398  -0.348  -0.325  -0.297  -0.263  -0.246

          Ground-State Mulliken Net Atomic Charges

     Atom                 Charge (a.u.)    Spin (a.u.)
  --------------------------------------------------------
      1 C                    -0.012162       0.040050
      2 C                    -0.153190      -0.043273
      3 C                    -0.089422       0.921879
      4 C                    -0.263881      -0.049875
      5 C                     0.118137       0.017504
      6 N                    -0.342537       0.002039
      7 H                     0.155762       0.009237
      8 H                     0.145902       0.002572
      9 H                     0.139224      -0.048479
     10 H                     0.135544       0.007643
     11 H                     0.146103       0.003942
     12 C                    -0.136579       0.131878
     13 H                     0.157099       0.004884
  --------------------------------------------------------
  Sum of atomic charges =    -0.000000

                    Cartesian Multipole Moments
 -----------------------------------------------------------------
    Charge (ESU x 10^10)
                -0.0000
    Dipole Moment (Debye)
         X      -0.9602      Y      -1.7118      Z       1.1830
       Tot       2.2916
    Quadrupole Moments (Debye-Ang)
        XX     -37.3223     XY      -4.1851     YY     -41.4105
        XZ       1.4951     YZ      -0.4376     ZZ     -42.5911

 Frequency:      -537.96                  96.14                 251.53
 Force Cnst:      0.1967                 0.0204                 0.1479
 Red. Mass:       1.1538                 3.7369                 3.9689
 IR Intens:       40.424                 10.882                  2.446
 Frequency:       388.87                 445.18                 586.83
 Force Cnst:      0.5237                 0.3426                 0.9821
 Red. Mass:       5.8779                 2.9342                 4.8404
 IR Intens:        1.057                  5.148                 13.899
 Frequency:       649.83                 702.08                 801.54
 Force Cnst:      1.4603                 1.8485                 1.4374
 Red. Mass:       5.8695                 6.3649                 3.7972
 IR Intens:        3.290                  2.187                 18.488
 Frequency:       860.39                 886.58                 902.85
 Force Cnst:      0.6178                 0.9683                 0.6985
 Red. Mass:       1.4164                 2.0907                 1.4545
 IR Intens:        0.968                 10.509                 10.918
 Frequency:       934.84                 993.48                 997.52
 Force Cnst:      0.8870                 0.9153                 0.9650
 Red. Mass:       1.7227                 1.5740                 1.6460
 IR Intens:        1.656                  8.874                 11.762
 Frequency:      1030.72                1058.24                1090.96
 Force Cnst:      1.0997                 1.0140                 2.1897
 Red. Mass:       1.7569                 1.5368                 3.1226
 IR Intens:        0.467                  3.488                  0.934
 Frequency:      1114.98                1150.12                1188.37
 Force Cnst:      1.2607                 1.2722                 1.3491
 Red. Mass:       1.7212                 1.6324                 1.6214
 IR Intens:        5.555                  5.213                  6.064
 Frequency:      1241.75                1314.41                1353.08
 Force Cnst:      1.6876                 1.4711                 1.6500
 Red. Mass:       1.8576                 1.4452                 1.5296
 IR Intens:       14.293                  2.079                 11.603
 Frequency:      1373.35                1395.60                1675.04
 Force Cnst:      1.7595                 2.1816                12.0277
 Red. Mass:       1.5833                 1.9011                 7.2758
 IR Intens:        9.781                  4.015                 23.937
 Frequency:      3031.32                3056.13                3124.61
 Force Cnst:      5.9130                 5.9866                 6.2664
 Red. Mass:       1.0922                 1.0879                 1.0894
 IR Intens:       11.213                 22.714                  8.005
 Frequency:      3135.40                3143.50                3279.66
 Force Cnst:      6.3285                 6.3631                 6.9383
 Red. Mass:       1.0926                 1.0929                 1.0948
 IR Intens:       40.707                 22.846                  5.217

 STANDARD THERMODYNAMIC QUANTITIES AT   298.15 K  AND     1.00 ATM

   This Molecule has  1 Imaginary Frequencies
   Zero point vibrational energy:       61.836 kcal/mol

   Atom    1 Element C  Has Mass   12.00000
   Atom    2 Element C  Has Mass   12.00000
   Atom    3 Element C  Has Mass   12.00000
   Atom    4 Element C  Has Mass   12.00000
   Atom    5 Element C  Has Mass   12.00000
   Atom    6 Element N  Has Mass   14.00307
   Atom    7 Element H  Has Mass    1.00783
   Atom    8 Element H  Has Mass    1.00783
   Atom    9 Element H  Has Mass    1.00783
   Atom   10 Element H  Has Mass    1.00783
   Atom   11 Element H  Has Mass    1.00783
   Atom   12 Element C  Has Mass   12.00000
   Atom   13 Element H  Has Mass    1.00783
   Molecular Mass:    92.050050 amu
   Principal axes and moments of inertia in amu*Bohr^2:
                             1           2           3
    Eigenvalues --      365.59304   460.92726   632.78972
          X               0.15629     0.98247    -0.10158
          Y               0.94750    -0.12009     0.29636
          Z              -0.27897     0.14257     0.94966
   Rotational Symmetry Number is   1
   The Molecule is an Asymmetric Top
   Translational Enthalpy:        0.889 kcal/mol
   Rotational Enthalpy:           0.889 kcal/mol
   Vibrational Enthalpy:         63.595 kcal/mol
   gas constant (RT):             0.592 kcal/mol
   Translational Entropy:        39.471  cal/mol.K
   Rotational Entropy:           26.169  cal/mol.K
   Vibrational Entropy:           9.681  cal/mol.K

   Total Enthalpy:               65.965 kcal/mol
   Total Entropy:                75.321  cal/mol.K

 Total job time:  318.57s(wall), 263.09s(cpu)
        *  Thank you very much for using Q-Chem.  Have a nice day.  *
