 Q-Chem 5.0, Q-Chem, Inc., Pleasanton, CA (2017)
 Q-Chem 5.0.2 for Intel X86 EM64T Linux

User input:
--------------------------------------------------------------
$molecule
0 2
C        1.2352670858    0.2596110477    0.1255060269
C        0.6573289154   -1.0915557138   -0.2955557500
C       -0.7191752190   -1.0073278654   -0.5614387008
C       -1.0352552025    0.2521756727    0.2438727148
C       -0.4852356739    1.4078067731   -0.5951908566
N        0.7955421762    1.3952070252   -0.6955569389
H        2.2876475939    0.2600803744    0.3939789715
H        1.3007070506   -1.9585180293   -0.4179014216
H       -1.3770456482   -1.6947316074   -1.0744961142
H       -2.0343617207    0.3561705185    0.6657073998
H       -1.0998080705    2.1077920302   -1.1572097344
C        0.1910008986   -0.0059579413    1.1506710021
H        0.2568328471   -0.2886870376    2.1920140467
$end

$rem
method                b3lyp
basis                 6-31+g(d,p)
unrestricted          true
symmetry              off
sym_ignore            true
incdft                false
incfock               0
scf_convergence       8
thresh                14
jobtype               sp
scf_guess             read
scf_algorithm         diis
max_scf_cycles        100
$end

--------------------------------------------------------------

             Standard Nuclear Orientation (Angstroms)
    I     Atom           X                Y                Z
 ----------------------------------------------------------------
    1      C       1.2352670858     0.2596110477     0.1255060269
    2      C       0.6573289154    -1.0915557138    -0.2955557500
    3      C      -0.7191752190    -1.0073278654    -0.5614387008
    4      C      -1.0352552025     0.2521756727     0.2438727148
    5      C      -0.4852356739     1.4078067731    -0.5951908566
    6      N       0.7955421762     1.3952070252    -0.6955569389
    7      H       2.2876475939     0.2600803744     0.3939789715
    8      H       1.3007070506    -1.9585180293    -0.4179014216
    9      H      -1.3770456482    -1.6947316074    -1.0744961142
   10      H      -2.0343617207     0.3561705185     0.6657073998
   11      H      -1.0998080705     2.1077920302    -1.1572097344
   12      C       0.1910008986    -0.0059579413     1.1506710021
   13      H       0.2568328471    -0.2886870376     2.1920140467
 ----------------------------------------------------------------

    2    -286.8475748203      3.78E-09 Convergence criterion met
 Total energy in the final basis set = -286.84757482

                    Orbital Energies (a.u.)
 --------------------------------------------------------------

 Alpha MOs
 -- Occupied --
-14.330 -10.235 -10.230 -10.229 -10.226 -10.221 -10.206  -0.972
 -0.849  -0.751  -0.696  -0.601  -0.585  -0.548  -0.522  -0.472
 -0.444  -0.424  -0.409  -0.378  -0.356  -0.296  -0.284  -0.277
 -0.157

 Beta MOs
 -- Occupied --
-14.329 -10.235 -10.231 -10.230 -10.222 -10.217 -10.197  -0.968
 -0.842  -0.747  -0.684  -0.598  -0.577  -0.541  -0.519  -0.463
 -0.441  -0.419  -0.406  -0.373  -0.351  -0.287  -0.275  -0.265

          Ground-State Mulliken Net Atomic Charges

     Atom                 Charge (a.u.)    Spin (a.u.)
  --------------------------------------------------------
      1 C                    -0.133340      -0.021223
      2 C                    -0.103200      -0.233029
      3 C                    -0.140895       0.726755
      4 C                     0.002027      -0.102324
      5 C                    -0.069538      -0.002385
      6 N                    -0.179717       0.062185
      7 H                     0.138891       0.004341
      8 H                     0.139224       0.010320
      9 H                     0.139084      -0.028757
     10 H                     0.129135       0.010560
     11 H                     0.132688       0.001552
     12 C                    -0.200333       0.596529
     13 H                     0.145974      -0.024524
  --------------------------------------------------------
  Sum of atomic charges =    -0.000000

                    Cartesian Multipole Moments
 -----------------------------------------------------------------
    Charge (ESU x 10^10)
                 0.0000
    Dipole Moment (Debye)
         X      -1.2130      Y      -1.8169      Z       1.4150
       Tot       2.6029
    Quadrupole Moments (Debye-Ang)
        XX     -38.6536     XY      -4.7667     YY     -43.9583
        XZ       2.6033     YZ       1.6589     ZZ     -42.7568

 Total job time:  11.89s(wall), 12.34s(cpu)
        *  Thank you very much for using Q-Chem.  Have a nice day.  *
