 Q-Chem 5.0, Q-Chem, Inc., Pleasanton, CA (2017)
 Q-Chem 5.0.2 for Intel X86 EM64T Linux

User input:
--------------------------------------------------------------
$molecule
0 2
C        1.3330909344    0.3451915530   -0.0295625002
C        0.6653534387   -1.0082130837   -0.1126171246
C       -0.7399892168   -1.0149462784   -0.5129873173
C       -1.1279057404    0.3073813230    0.0793849602
C       -0.4805224829    1.4724794616   -0.5972945737
N        0.7990610977    1.4856192549   -0.6721529640
H        2.4224974222    0.3652098374    0.0658887410
H        1.3293051093   -1.8746137160   -0.0698918321
H       -1.3629902135   -1.8698990047   -0.7285805944
H       -2.1887818873    0.4878354428    0.3106099395
H       -1.0518929446    2.3297196736   -0.9609717920
C        0.2088156735   -0.2565443124    1.1149653831
H        0.1674038425   -0.7771549042    2.0876103197
$end

$rem
method                b3lyp
basis                 6-31g(d)
unrestricted          true
symmetry              off
sym_ignore            true
incdft                false
incfock               0
scf_convergence       8
thresh                14
jobtype               sp
scf_guess             core
scf_guess_mix         5
scf_algorithm         diis
max_scf_cycles        100
$end

--------------------------------------------------------------

             Standard Nuclear Orientation (Angstroms)
    I     Atom           X                Y                Z
 ----------------------------------------------------------------
    1      C       1.3330909344     0.3451915530    -0.0295625002
    2      C       0.6653534387    -1.0082130837    -0.1126171246
    3      C      -0.7399892168    -1.0149462784    -0.5129873173
    4      C      -1.1279057404     0.3073813230     0.0793849602
    5      C      -0.4805224829     1.4724794616    -0.5972945737
    6      N       0.7990610977     1.4856192549    -0.6721529640
    7      H       2.4224974222     0.3652098374     0.0658887410
    8      H       1.3293051093    -1.8746137160    -0.0698918321
    9      H      -1.3629902135    -1.8698990047    -0.7285805944
   10      H      -2.1887818873     0.4878354428     0.3106099395
   11      H      -1.0518929446     2.3297196736    -0.9609717920
   12      C       0.2088156735    -0.2565443124     1.1149653831
   13      H       0.1674038425    -0.7771549042     2.0876103197
 ----------------------------------------------------------------

   22    -286.7863233558      4.77E-09 Convergence criterion met
 Total energy in the final basis set = -286.78632336

                    Orbital Energies (a.u.)
 --------------------------------------------------------------

 Alpha MOs
 -- Occupied --
-14.325 -10.241 -10.233 -10.223 -10.221 -10.205 -10.189  -0.958
 -0.858  -0.753  -0.641  -0.623  -0.590  -0.536  -0.490  -0.451
 -0.446  -0.420  -0.402  -0.354  -0.330  -0.312  -0.271  -0.250
 -0.137

 Beta MOs
 -- Occupied --
-14.325 -10.240 -10.230 -10.223 -10.221 -10.205 -10.177  -0.955
 -0.850  -0.747  -0.625  -0.620  -0.585  -0.531  -0.486  -0.448
 -0.437  -0.417  -0.398  -0.348  -0.325  -0.297  -0.263  -0.246

          Ground-State Mulliken Net Atomic Charges

     Atom                 Charge (a.u.)    Spin (a.u.)
  --------------------------------------------------------
      1 C                    -0.012162       0.040046
      2 C                    -0.153190      -0.043272
      3 C                    -0.089422       0.921877
      4 C                    -0.263881      -0.049871
      5 C                     0.118137       0.017488
      6 N                    -0.342537       0.002052
      7 H                     0.155762       0.009237
      8 H                     0.145902       0.002572
      9 H                     0.139224      -0.048479
     10 H                     0.135544       0.007643
     11 H                     0.146103       0.003943
     12 C                    -0.136579       0.131879
     13 H                     0.157099       0.004884
  --------------------------------------------------------
  Sum of atomic charges =    -0.000000

                    Cartesian Multipole Moments
 -----------------------------------------------------------------
    Charge (ESU x 10^10)
                -0.0000
    Dipole Moment (Debye)
         X      -0.9602      Y      -1.7118      Z       1.1830
       Tot       2.2916
    Quadrupole Moments (Debye-Ang)
        XX     -37.3223     XY      -4.1851     YY     -41.4105
        XZ       1.4951     YZ      -0.4376     ZZ     -42.5911

 Total job time:  66.65s(wall), 60.62s(cpu)
        *  Thank you very much for using Q-Chem.  Have a nice day.  *
