 Q-Chem 5.0, Q-Chem, Inc., Pleasanton, CA (2017)
 Q-Chem 5.0.2 for Intel X86 EM64T Linux

User input:
--------------------------------------------------------------
$molecule
0 2
C        1.3330909344    0.3451915530   -0.0295625002
C        0.6653534387   -1.0082130837   -0.1126171246
C       -0.7399892168   -1.0149462784   -0.5129873173
C       -1.1279057404    0.3073813230    0.0793849602
C       -0.4805224829    1.4724794616   -0.5972945737
N        0.7990610977    1.4856192549   -0.6721529640
H        2.4224974222    0.3652098374    0.0658887410
H        1.3293051093   -1.8746137160   -0.0698918321
H       -1.3629902135   -1.8698990047   -0.7285805944
H       -2.1887818873    0.4878354428    0.3106099395
H       -1.0518929446    2.3297196736   -0.9609717920
C        0.2088156735   -0.2565443124    1.1149653831
H        0.1674038425   -0.7771549042    2.0876103197
$end

$rem
method                b3lyp
basis                 6-31g(d)
unrestricted          true
symmetry              off
sym_ignore            true
incdft                false
incfock               0
scf_convergence       8
thresh                14
jobtype               ts
scf_guess             read
scf_algorithm         diis
max_scf_cycles        100
geom_opt_max_cycles   500
geom_opt_dmax         100
geom_opt_tol_gradient 10
geom_opt_hessian      read
$end

--------------------------------------------------------------

    2    -286.7863233558      5.40E-10 Convergence criterion met
 Total energy in the final basis set = -286.78632336
   13    -286.7896397834      9.71E-09 Convergence criterion met
 Total energy in the final basis set = -286.78963978
   13    -286.7932916223      9.34E-09 Convergence criterion met
 Total energy in the final basis set = -286.79329162
   13    -286.7967447898      5.37E-09 Convergence criterion met
 Total energy in the final basis set = -286.79674479
   12    -286.7999640327      7.74E-09 Convergence criterion met
 Total energy in the final basis set = -286.79996403
   12    -286.8029245820      8.06E-09 Convergence criterion met
 Total energy in the final basis set = -286.80292458
   12    -286.8055930000      8.35E-09 Convergence criterion met
 Total energy in the final basis set = -286.80559300
   12    -286.8079323111      8.08E-09 Convergence criterion met
    9    -286.8245181262      3.52E-09 Convergence criterion met
 Total energy in the final basis set = -286.82451813
    8    -286.8245181410      4.27E-09 Convergence criterion met
 Total energy in the final basis set = -286.82451814
    7    -286.8245181517      8.96E-09 Convergence criterion met
 Total energy in the final basis set = -286.82451815
    8    -286.8245181595      3.13E-09 Convergence criterion met
 Total energy in the final basis set = -286.82451816
    7    -286.8245181652      7.03E-09 Convergence criterion met
 Total energy in the final basis set = -286.82451817
    7    -286.8245181693      9.72E-09 Convergence criterion met
 Total energy in the final basis set = -286.82451817

             Standard Nuclear Orientation (Angstroms)
    I     Atom           X                Y                Z
 ----------------------------------------------------------------
    1      C       1.2337114880     0.2595605828     0.1240938987
    2      C       0.6549154102    -1.0925113552    -0.2900080670
    3      C      -0.7204455109    -1.0109851223    -0.5506972298
    4      C      -1.0347389866     0.2518552746     0.2494802445
    5      C      -0.4844000952     1.4034481616    -0.5957588985
    6      N       0.7941929558     1.3920769490    -0.7027898685
    7      H       2.2873580450     0.2619396273     0.3918167132
    8      H       1.2997376977    -1.9592737986    -0.4145374589
    9      H      -1.3712079643    -1.6803914723    -1.0969744713
   10      H      -2.0335754656     0.3580002387     0.6735580910
   11      H      -1.1018691163     2.0999296113    -1.1607862017
   12      C       0.1918672648     0.0038014797     1.1552151879
   13      H       0.2578993102    -0.2953849297     2.1917887057
 ----------------------------------------------------------------

    7    -286.8245181723      5.59E-09 Convergence criterion met
 Total energy in the final basis set = -286.82451817
 Final energy is   -286.824518172331
 **  OPTIMIZATION CONVERGED  **

                    Orbital Energies (a.u.)
 --------------------------------------------------------------

 Alpha MOs
 -- Occupied --
-14.314 -10.224 -10.218 -10.216 -10.212 -10.209 -10.193  -0.959
 -0.836  -0.739  -0.685  -0.590  -0.575  -0.538  -0.513  -0.461
 -0.433  -0.414  -0.398  -0.367  -0.345  -0.284  -0.271  -0.264
 -0.145

 Beta MOs
 -- Occupied --
-14.313 -10.224 -10.219 -10.218 -10.210 -10.204 -10.184  -0.955
 -0.828  -0.735  -0.673  -0.586  -0.566  -0.531  -0.510  -0.453
 -0.429  -0.408  -0.396  -0.362  -0.340  -0.274  -0.261  -0.251

          Ground-State Mulliken Net Atomic Charges

     Atom                 Charge (a.u.)    Spin (a.u.)
  --------------------------------------------------------
      1 C                    -0.027939       0.004172
      2 C                    -0.132176      -0.216362
      3 C                    -0.081903       0.664096
      4 C                    -0.258244      -0.069111
      5 C                     0.091641       0.008593
      6 N                    -0.338741       0.064156
      7 H                     0.146627       0.004279
      8 H                     0.147991       0.011868
      9 H                     0.141981      -0.026864
     10 H                     0.137616       0.010520
     11 H                     0.143579       0.001581
     12 C                    -0.128947       0.570947
     13 H                     0.158516      -0.027875
  --------------------------------------------------------
  Sum of atomic charges =    -0.000000

                    Cartesian Multipole Moments
 -----------------------------------------------------------------
    Charge (ESU x 10^10)
                 0.0000
    Dipole Moment (Debye)
         X      -1.1099      Y      -1.6992      Z       1.2514
       Tot       2.3844
    Quadrupole Moments (Debye-Ang)
        XX     -37.8601     XY      -4.2267     YY     -42.2867
        XZ       2.5577     YZ       1.6020     ZZ     -40.8353

 Total job time:  3242.30s(wall), 3893.60s(cpu)
        *  Thank you very much for using Q-Chem.  Have a nice day.  *
