 Q-Chem 5.0, Q-Chem, Inc., Pleasanton, CA (2017)
 Q-Chem 5.0.2 for Intel X86 EM64T Linux

User input:
--------------------------------------------------------------
$molecule
0 2
C        1.2337114880    0.2595605828    0.1240938987
C        0.6549154102   -1.0925113552   -0.2900080670
C       -0.7204455109   -1.0109851223   -0.5506972298
C       -1.0347389866    0.2518552746    0.2494802445
C       -0.4844000952    1.4034481616   -0.5957588985
N        0.7941929558    1.3920769490   -0.7027898685
H        2.2873580450    0.2619396273    0.3918167132
H        1.2997376977   -1.9592737986   -0.4145374589
H       -1.3712079643   -1.6803914723   -1.0969744713
H       -2.0335754656    0.3580002387    0.6735580910
H       -1.1018691163    2.0999296113   -1.1607862017
C        0.1918672648    0.0038014797    1.1552151879
H        0.2578993102   -0.2953849297    2.1917887057
$end

$rem
method                b3lyp
basis                 6-31+g(d,p)
unrestricted          true
symmetry              off
sym_ignore            true
incdft                false
incfock               0
scf_convergence       8
thresh                14
jobtype               sp
scf_guess             core
scf_guess_mix         5
scf_algorithm         diis
max_scf_cycles        100
$end

--------------------------------------------------------------

             Standard Nuclear Orientation (Angstroms)
    I     Atom           X                Y                Z
 ----------------------------------------------------------------
    1      C       1.2337114880     0.2595605828     0.1240938987
    2      C       0.6549154102    -1.0925113552    -0.2900080670
    3      C      -0.7204455109    -1.0109851223    -0.5506972298
    4      C      -1.0347389866     0.2518552746     0.2494802445
    5      C      -0.4844000952     1.4034481616    -0.5957588985
    6      N       0.7941929558     1.3920769490    -0.7027898685
    7      H       2.2873580450     0.2619396273     0.3918167132
    8      H       1.2997376977    -1.9592737986    -0.4145374589
    9      H      -1.3712079643    -1.6803914723    -1.0969744713
   10      H      -2.0335754656     0.3580002387     0.6735580910
   11      H      -1.1018691163     2.0999296113    -1.1607862017
   12      C       0.1918672648     0.0038014797     1.1552151879
   13      H       0.2578993102    -0.2953849297     2.1917887057
 ----------------------------------------------------------------

   22    -286.8475343378      6.17E-09 Convergence criterion met
 Total energy in the final basis set = -286.84753434

                    Orbital Energies (a.u.)
 --------------------------------------------------------------

 Alpha MOs
 -- Occupied --
-14.330 -10.235 -10.230 -10.228 -10.225 -10.221 -10.207  -0.973
 -0.850  -0.750  -0.696  -0.601  -0.585  -0.547  -0.522  -0.473
 -0.444  -0.425  -0.408  -0.378  -0.356  -0.296  -0.284  -0.278
 -0.158

 Beta MOs
 -- Occupied --
-14.329 -10.235 -10.231 -10.230 -10.222 -10.217 -10.197  -0.969
 -0.842  -0.747  -0.684  -0.597  -0.577  -0.541  -0.519  -0.464
 -0.441  -0.419  -0.406  -0.373  -0.351  -0.287  -0.275  -0.265

          Ground-State Mulliken Net Atomic Charges

     Atom                 Charge (a.u.)    Spin (a.u.)
  --------------------------------------------------------
      1 C                    -0.135345      -0.019108
      2 C                    -0.100725      -0.236228
      3 C                    -0.145204       0.719870
      4 C                     0.007306      -0.102328
      5 C                    -0.070622      -0.001888
      6 N                    -0.179096       0.062304
      7 H                     0.138627       0.004577
      8 H                     0.138969       0.010775
      9 H                     0.138635      -0.026635
     10 H                     0.129414       0.011013
     11 H                     0.132164       0.001596
     12 C                    -0.201009       0.601717
     13 H                     0.146885      -0.025666
  --------------------------------------------------------
  Sum of atomic charges =     0.000000

                    Cartesian Multipole Moments
 -----------------------------------------------------------------
    Charge (ESU x 10^10)
                -0.0000
    Dipole Moment (Debye)
         X      -1.2109      Y      -1.8116      Z       1.3814
       Tot       2.5800
    Quadrupole Moments (Debye-Ang)
        XX     -38.6875     XY      -4.7651     YY     -44.0371
        XZ       2.6464     YZ       1.6760     ZZ     -42.6763

 Total job time:  75.28s(wall), 116.78s(cpu)
        *  Thank you very much for using Q-Chem.  Have a nice day.  *
