 Q-Chem 5.0, Q-Chem, Inc., Pleasanton, CA (2017)
 Q-Chem 5.0.2 for Intel X86 EM64T Linux

User input:
--------------------------------------------------------------
$molecule
0 2
C        1.2337114880    0.2595605828    0.1240938987
C        0.6549154102   -1.0925113552   -0.2900080670
C       -0.7204455109   -1.0109851223   -0.5506972298
C       -1.0347389866    0.2518552746    0.2494802445
C       -0.4844000952    1.4034481616   -0.5957588985
N        0.7941929558    1.3920769490   -0.7027898685
H        2.2873580450    0.2619396273    0.3918167132
H        1.2997376977   -1.9592737986   -0.4145374589
H       -1.3712079643   -1.6803914723   -1.0969744713
H       -2.0335754656    0.3580002387    0.6735580910
H       -1.1018691163    2.0999296113   -1.1607862017
C        0.1918672648    0.0038014797    1.1552151879
H        0.2578993102   -0.2953849297    2.1917887057
$end

$rem
method                b3lyp
basis                 6-31+g(d,p)
unrestricted          true
symmetry              off
sym_ignore            true
incdft                false
incfock               0
scf_convergence       8
thresh                14
jobtype               freq
scf_guess             read
scf_algorithm         diis
max_scf_cycles        100
$end

--------------------------------------------------------------

             Standard Nuclear Orientation (Angstroms)
    I     Atom           X                Y                Z
 ----------------------------------------------------------------
    1      C       1.2337114880     0.2595605828     0.1240938987
    2      C       0.6549154102    -1.0925113552    -0.2900080670
    3      C      -0.7204455109    -1.0109851223    -0.5506972298
    4      C      -1.0347389866     0.2518552746     0.2494802445
    5      C      -0.4844000952     1.4034481616    -0.5957588985
    6      N       0.7941929558     1.3920769490    -0.7027898685
    7      H       2.2873580450     0.2619396273     0.3918167132
    8      H       1.2997376977    -1.9592737986    -0.4145374589
    9      H      -1.3712079643    -1.6803914723    -1.0969744713
   10      H      -2.0335754656     0.3580002387     0.6735580910
   11      H      -1.1018691163     2.0999296113    -1.1607862017
   12      C       0.1918672648     0.0038014797     1.1552151879
   13      H       0.2578993102    -0.2953849297     2.1917887057
 ----------------------------------------------------------------

    2    -286.8475343378      2.00E-09 Convergence criterion met
 Total energy in the final basis set = -286.84753434

                    Orbital Energies (a.u.)
 --------------------------------------------------------------

 Alpha MOs
 -- Occupied --
-14.330 -10.235 -10.230 -10.228 -10.225 -10.221 -10.207  -0.973
 -0.850  -0.750  -0.696  -0.601  -0.585  -0.547  -0.522  -0.473
 -0.444  -0.425  -0.408  -0.378  -0.356  -0.296  -0.284  -0.278
 -0.158

 Beta MOs
 -- Occupied --
-14.329 -10.235 -10.231 -10.230 -10.222 -10.217 -10.197  -0.969
 -0.842  -0.747  -0.684  -0.597  -0.577  -0.541  -0.519  -0.464
 -0.441  -0.419  -0.406  -0.373  -0.351  -0.287  -0.275  -0.265

          Ground-State Mulliken Net Atomic Charges

     Atom                 Charge (a.u.)    Spin (a.u.)
  --------------------------------------------------------
      1 C                    -0.135346      -0.019106
      2 C                    -0.100725      -0.236230
      3 C                    -0.145204       0.719872
      4 C                     0.007306      -0.102330
      5 C                    -0.070622      -0.001879
      6 N                    -0.179096       0.062296
      7 H                     0.138627       0.004577
      8 H                     0.138969       0.010775
      9 H                     0.138635      -0.026635
     10 H                     0.129414       0.011013
     11 H                     0.132164       0.001595
     12 C                    -0.201009       0.601717
     13 H                     0.146885      -0.025666
  --------------------------------------------------------
  Sum of atomic charges =     0.000000

                    Cartesian Multipole Moments
 -----------------------------------------------------------------
    Charge (ESU x 10^10)
                -0.0000
    Dipole Moment (Debye)
         X      -1.2109      Y      -1.8116      Z       1.3814
       Tot       2.5800
    Quadrupole Moments (Debye-Ang)
        XX     -38.6875     XY      -4.7651     YY     -44.0371
        XZ       2.6464     YZ       1.6760     ZZ     -42.6763

 Frequency:      -666.51                 366.32                 400.93
 Force Cnst:      1.3609                 0.0962                 0.1112
 Red. Mass:       5.1996                 1.2164                 1.1739
 IR Intens:       37.581                 15.321                 29.201
 Frequency:       444.92                 482.08                 604.94
 Force Cnst:      0.3469                 0.5435                 0.9923
 Red. Mass:       2.9745                 3.9694                 4.6020
 IR Intens:       14.146                  7.828                 15.623
 Frequency:       741.66                 784.49                 831.12
 Force Cnst:      1.9628                 2.6220                 0.8842
 Red. Mass:       6.0564                 7.2311                 2.1727
 IR Intens:        3.288                  5.055                 17.913
 Frequency:       852.18                 883.67                 896.50
 Force Cnst:      1.7994                 1.0394                 0.6956
 Red. Mass:       4.2054                 2.2593                 1.4690
 IR Intens:       10.071                  7.465                  2.598
 Frequency:       914.24                 929.25                 958.92
 Force Cnst:      1.0022                 0.8094                 1.0893
 Red. Mass:       2.0351                 1.5909                 2.0106
 IR Intens:        0.700                 21.280                  2.391
 Frequency:       973.94                1027.30                1086.69
 Force Cnst:      1.1383                 1.2859                 1.2060
 Red. Mass:       2.0368                 2.0680                 1.7334
 IR Intens:        2.508                  3.624                  5.155
 Frequency:      1143.25                1177.91                1217.60
 Force Cnst:      1.2788                 1.4631                 1.3587
 Red. Mass:       1.6606                 1.7897                 1.5555
 IR Intens:       15.170                  1.623                  6.021
 Frequency:      1244.86                1274.57                1319.63
 Force Cnst:      1.4533                 1.2043                 1.5995
 Red. Mass:       1.5917                 1.2582                 1.5589
 IR Intens:        6.377                  1.186                  2.355
 Frequency:      1322.75                1409.62                1634.65
 Force Cnst:      1.7292                 3.2413                11.9539
 Red. Mass:       1.6774                 2.7687                 7.5929
 IR Intens:       19.849                  1.802                 44.446
 Frequency:      3138.93                3174.41                3175.84
 Force Cnst:      6.3281                 6.4731                 6.5020
 Red. Mass:       1.0901                 1.0903                 1.0942
 IR Intens:       17.483                 17.595                 11.860
 Frequency:      3185.73                3251.48                3266.24
 Force Cnst:      6.5348                 6.8255                 6.8866
 Red. Mass:       1.0929                 1.0958                 1.0956
 IR Intens:       19.425                  1.871                  0.408

 STANDARD THERMODYNAMIC QUANTITIES AT   298.15 K  AND     1.00 ATM

   This Molecule has  1 Imaginary Frequencies
   Zero point vibrational energy:       63.068 kcal/mol

   Atom    1 Element C  Has Mass   12.00000
   Atom    2 Element C  Has Mass   12.00000
   Atom    3 Element C  Has Mass   12.00000
   Atom    4 Element C  Has Mass   12.00000
   Atom    5 Element C  Has Mass   12.00000
   Atom    6 Element N  Has Mass   14.00307
   Atom    7 Element H  Has Mass    1.00783
   Atom    8 Element H  Has Mass    1.00783
   Atom    9 Element H  Has Mass    1.00783
   Atom   10 Element H  Has Mass    1.00783
   Atom   11 Element H  Has Mass    1.00783
   Atom   12 Element C  Has Mass   12.00000
   Atom   13 Element H  Has Mass    1.00783
   Molecular Mass:    92.050050 amu
   Principal axes and moments of inertia in amu*Bohr^2:
                             1           2           3
    Eigenvalues --      376.94484   456.84481   565.61753
          X               0.14730     0.98278    -0.11157
          Y               0.96877    -0.12061     0.21664
          Z              -0.19946     0.14000     0.96985
   Rotational Symmetry Number is   1
   The Molecule is an Asymmetric Top
   Translational Enthalpy:        0.889 kcal/mol
   Rotational Enthalpy:           0.889 kcal/mol
   Vibrational Enthalpy:         64.383 kcal/mol
   gas constant (RT):             0.592 kcal/mol
   Translational Entropy:        39.471  cal/mol.K
   Rotational Entropy:           26.079  cal/mol.K
   Vibrational Entropy:           6.029  cal/mol.K

   Total Enthalpy:               66.753 kcal/mol
   Total Entropy:                71.580  cal/mol.K

 Total job time:  693.00s(wall), 594.03s(cpu)
        *  Thank you very much for using Q-Chem.  Have a nice day.  *
