 Q-Chem 5.0, Q-Chem, Inc., Pleasanton, CA (2017)
 Q-Chem 5.0.2 for Intel X86 EM64T Linux

User input:
--------------------------------------------------------------
$molecule
0 2
C        0.6483972425    0.0835953167    0.2973282899
C        1.0785925012   -1.2142706957   -0.3622277224
C        0.4245080594   -2.3505531995   -0.3079803595
C       -1.3987490325    1.1291146429    0.3406471814
C       -0.4703795498    1.7538297523   -0.6125607587
N        0.6886141214    1.1917338364   -0.6756297385
H        1.3933579009    0.3309098018    1.0738806583
H        2.0215288452   -1.1395391840   -0.9164208038
H        0.5563983417   -3.3576621815   -0.6828366767
H       -2.4150626455    1.4514962141    0.5368395216
H       -0.7045498392    2.6207759088   -1.2294916450
C       -0.7336122001    0.1003825362    0.8960211307
H       -1.0890437453   -0.5998127484    1.6424309228
$end

$rem
method                b3lyp
basis                 6-31g(d)
unrestricted          true
symmetry              off
sym_ignore            true
incdft                false
incfock               0
scf_convergence       8
thresh                14
jobtype               opt
scf_guess             read
scf_algorithm         diis
max_scf_cycles        100
geom_opt_tol_gradient 600
geom_opt_tol_displacement 2400
geom_opt_tol_energy   200
geom_opt_max_cycles   100
$end

--------------------------------------------------------------

    2    -286.8505497780      3.36E-09 Convergence criterion met
 Total energy in the final basis set = -286.85054978

             Standard Nuclear Orientation (Angstroms)
    I     Atom           X                Y                Z
 ----------------------------------------------------------------
    1      C       0.6494914207     0.0839761178     0.2991552031
    2      C       1.0806282171    -1.2141277957    -0.3584978084
    3      C       0.4233757433    -2.3485738784    -0.3089200342
    4      C      -1.3980293296     1.1293641294     0.3418791365
    5      C      -0.4702765124     1.7509570825    -0.6143426744
    6      N       0.6900961814     1.1908332465    -0.6747075731
    7      H       1.3934008623     0.3326736311     1.0763752740
    8      H       2.0214901787    -1.1383004241    -0.9161422581
    9      H       0.5522118050    -3.3542374035    -0.6888464018
   10      H      -2.4148757291     1.4508840267     0.5372417267
   11      H      -0.7060282514     2.6156511039    -1.2338378802
   12      C      -0.7329506705     0.1006448239     0.8972800983
   13      H      -1.0885339157    -0.5997446602     1.6433631916
 ----------------------------------------------------------------

   10    -286.8505514046      9.79E-09 Convergence criterion met
 Total energy in the final basis set = -286.85055140
 Final energy is   -286.850551404638
 **  OPTIMIZATION CONVERGED  **

                    Orbital Energies (a.u.)
 --------------------------------------------------------------

 Alpha MOs
 -- Occupied --
-14.321 -10.227 -10.224 -10.209 -10.202 -10.201 -10.196  -0.943
 -0.790  -0.765  -0.704  -0.595  -0.556  -0.537  -0.507  -0.469
 -0.446  -0.405  -0.398  -0.370  -0.326  -0.274  -0.265  -0.254
 -0.234

 Beta MOs
 -- Occupied --
-14.321 -10.226 -10.224 -10.204 -10.201 -10.196 -10.193  -0.943
 -0.782  -0.764  -0.692  -0.587  -0.555  -0.529  -0.504  -0.457
 -0.441  -0.403  -0.397  -0.365  -0.324  -0.268  -0.261  -0.252

          Ground-State Mulliken Net Atomic Charges

     Atom                 Charge (a.u.)    Spin (a.u.)
  --------------------------------------------------------
      1 C                    -0.069561       0.042902
      2 C                    -0.103216      -0.167412
      3 C                    -0.198416       1.040348
      4 C                    -0.142530       0.000297
      5 C                     0.055935       0.004784
      6 N                    -0.377506      -0.003524
      7 H                     0.180855      -0.004341
      8 H                     0.164058       0.078637
      9 H                     0.163943       0.004915
     10 H                     0.140245       0.000137
     11 H                     0.143470      -0.000145
     12 C                    -0.110439       0.002928
     13 H                     0.153163       0.000474
  --------------------------------------------------------
  Sum of atomic charges =    -0.000000

                    Cartesian Multipole Moments
 -----------------------------------------------------------------
    Charge (ESU x 10^10)
                -0.0000
    Dipole Moment (Debye)
         X      -0.9690      Y      -0.5570      Z       1.0251
       Tot       1.5166
    Quadrupole Moments (Debye-Ang)
        XX     -38.9434     XY      -4.4498     YY     -37.6610
        XZ       0.5170     YZ       1.0304     ZZ     -41.1202

 Total job time:  15.50s(wall), 46.90s(cpu)
        *  Thank you very much for using Q-Chem.  Have a nice day.  *
