 Q-Chem 5.0, Q-Chem, Inc., Pleasanton, CA (2017)
 Q-Chem 5.0.2 for Intel X86 EM64T Linux

User input:
--------------------------------------------------------------
$molecule
0 2
C        1.5563975317    0.3342681546   -0.6044598336
C        0.0168710970   -1.1642377329    0.6129085033
C       -1.3095311657   -1.1478334902    0.9640310380
C       -1.8663763910    0.0699302854    0.4636169603
C       -0.8615573798    0.7539172924   -0.1745623340
N        0.2962897907    0.0001620612   -0.0860811382
H        2.3033024549   -0.4477897132   -0.4426818979
H        0.7955441002   -1.8913159378    0.7967933116
H       -1.8270721516   -1.9185037383    1.5190989321
H       -2.8919369375    0.4005032513    0.5594391657
H       -0.8513086895    1.7013478292   -0.6924690126
C        1.8757115795    1.4494219153   -1.2306002926
H        2.7636661612    1.8601298230   -1.6850334020
$end

$rem
method                b3lyp
basis                 6-31g(d)
unrestricted          true
symmetry              off
sym_ignore            true
incdft                false
incfock               0
scf_convergence       8
thresh                14
jobtype               opt
scf_guess             read
scf_algorithm         diis
max_scf_cycles        100
geom_opt_tol_gradient 600
geom_opt_tol_displacement 2400
geom_opt_tol_energy   200
geom_opt_max_cycles   100
$end

--------------------------------------------------------------

    2    -286.8723903084      9.00E-10 Convergence criterion met
 Total energy in the final basis set = -286.87239031
   12    -286.8723998333      2.91E-09 Convergence criterion met
 Total energy in the final basis set = -286.87239983
   12    -286.8724074115      9.65E-09 Convergence criterion met
 Total energy in the final basis set = -286.87240741
   12    -286.8724098281      2.62E-09 Convergence criterion met
 Total energy in the final basis set = -286.87240983

             Standard Nuclear Orientation (Angstroms)
    I     Atom           X                Y                Z
 ----------------------------------------------------------------
    1      C       1.5599341035     0.3372626173    -0.5945075712
    2      C       0.0156982122    -1.1669863355     0.6098194830
    3      C      -1.3114015493    -1.1510463374     0.9575111490
    4      C      -1.8654244563     0.0706851999     0.4627800176
    5      C      -0.8582102407     0.7568166777    -0.1692919084
    6      N       0.2981838317     0.0011138754    -0.0814399794
    7      H       2.3163756340    -0.4262153832    -0.3938164894
    8      H       0.7921498740    -1.8982517118     0.7848889913
    9      H      -1.8323248976    -1.9258625095     1.5035202507
   10      H      -2.8896412493     0.4040754169     0.5632032556
   11      H      -0.8444433013     1.7108019781    -0.6747837791
   12      C       1.8675912714     1.4356842429    -1.2551434275
   13      H       2.7515127675     1.8519222692    -1.7127399920
 ----------------------------------------------------------------

   10    -286.8724109667      8.85E-09 Convergence criterion met
 Total energy in the final basis set = -286.87241097
 Final energy is   -286.872410966682
 **  OPTIMIZATION CONVERGED  **

                    Orbital Energies (a.u.)
 --------------------------------------------------------------

 Alpha MOs
 -- Occupied --
-14.392 -10.242 -10.214 -10.205 -10.201 -10.171 -10.170  -0.988
 -0.817  -0.737  -0.720  -0.618  -0.574  -0.544  -0.513  -0.476
 -0.428  -0.423  -0.417  -0.386  -0.374  -0.303  -0.255  -0.224
 -0.210

 Beta MOs
 -- Occupied --
-14.391 -10.243 -10.205 -10.201 -10.198 -10.171 -10.170  -0.987
 -0.812  -0.725  -0.717  -0.605  -0.573  -0.543  -0.500  -0.466
 -0.424  -0.424  -0.414  -0.385  -0.374  -0.301  -0.216  -0.211

          Ground-State Mulliken Net Atomic Charges

     Atom                 Charge (a.u.)    Spin (a.u.)
  --------------------------------------------------------
      1 C                     0.068357      -0.140579
      2 C                     0.027785      -0.002617
      3 C                    -0.193400      -0.005389
      4 C                    -0.186812      -0.008659
      5 C                     0.037622       0.008961
      6 N                    -0.401635       0.019528
      7 H                     0.163166       0.068811
      8 H                     0.144862       0.000099
      9 H                     0.128541       0.001022
     10 H                     0.128902       0.000826
     11 H                     0.154874       0.000547
     12 C                    -0.244582       1.062498
     13 H                     0.172319      -0.005048
  --------------------------------------------------------
  Sum of atomic charges =    -0.000000

                    Cartesian Multipole Moments
 -----------------------------------------------------------------
    Charge (ESU x 10^10)
                -0.0000
    Dipole Moment (Debye)
         X       1.3996      Y      -0.2145      Z      -0.2638
       Tot       1.4403
    Quadrupole Moments (Debye-Ang)
        XX     -34.9536     XY      -0.9682     YY     -38.8034
        XZ      -2.1538     YZ      -2.9385     ZZ     -42.7535

 Total job time:  63.32s(wall), 159.62s(cpu)
        *  Thank you very much for using Q-Chem.  Have a nice day.  *
