 Q-Chem 5.0, Q-Chem, Inc., Pleasanton, CA (2017)
 Q-Chem 5.0.2 for Intel X86 EM64T Linux

User input:
--------------------------------------------------------------
$molecule
0 2
C        1.5779469684    0.4187592301   -0.1637269914
C        0.8150283981   -0.8257173397    0.0989648667
C       -0.5607284438   -0.9747999929   -0.5291910636
C       -1.1156385907    0.3342952092    0.0132378223
C       -0.3603678040    1.5755786040   -0.2795527659
N        0.9707663675    1.5897774397   -0.3545177004
H        2.6647564820    0.3997771833   -0.1973506900
H        1.3917362961   -1.7400176595    0.2254794554
H       -1.0068983984   -1.7610263481   -1.1204013096
H       -2.1990878065    0.4174228136    0.0709183894
H       -0.8880146071    2.5101957788   -0.4561617909
C       -0.4691753240   -0.7121072545    0.9065177435
H       -0.8203235374   -1.2321376639    1.7857840344
$end

$rem
method                b3lyp
basis                 6-31+g(d,p)
unrestricted          true
symmetry              off
sym_ignore            true
incdft                false
incfock               0
scf_convergence       8
thresh                14
jobtype               sp
scf_guess             read
scf_algorithm         diis
max_scf_cycles        100
scf_final_print       1
$end

--------------------------------------------------------------

             Standard Nuclear Orientation (Angstroms)
    I     Atom           X                Y                Z
 ----------------------------------------------------------------
    1      C       1.5779469684     0.4187592301    -0.1637269914
    2      C       0.8150283981    -0.8257173397     0.0989648667
    3      C      -0.5607284438    -0.9747999929    -0.5291910636
    4      C      -1.1156385907     0.3342952092     0.0132378223
    5      C      -0.3603678040     1.5755786040    -0.2795527659
    6      N       0.9707663675     1.5897774397    -0.3545177004
    7      H       2.6647564820     0.3997771833    -0.1973506900
    8      H       1.3917362961    -1.7400176595     0.2254794554
    9      H      -1.0068983984    -1.7610263481    -1.1204013096
   10      H      -2.1990878065     0.4174228136     0.0709183894
   11      H      -0.8880146071     2.5101957788    -0.4561617909
   12      C      -0.4691753240    -0.7121072545     0.9065177435
   13      H      -0.8203235374    -1.2321376639     1.7857840344
 ----------------------------------------------------------------

    2    -286.8793654365      8.17E-10 Convergence criterion met
 Total energy in the final basis set = -286.87936544

                    Orbital Energies (a.u.)
 --------------------------------------------------------------

 Alpha MOs
 -- Occupied --
-14.331 -10.226 -10.226 -10.226 -10.225 -10.225 -10.225  -0.970
 -0.907  -0.760  -0.652  -0.645  -0.597  -0.553  -0.490  -0.482
 -0.473  -0.417  -0.404  -0.374  -0.348  -0.310  -0.309  -0.238
 -0.184

 Beta MOs
 -- Occupied --
-14.334 -10.226 -10.226 -10.223 -10.223 -10.218 -10.218  -0.966
 -0.904  -0.748  -0.641  -0.640  -0.592  -0.550  -0.483  -0.476
 -0.472  -0.413  -0.387  -0.370  -0.333  -0.309  -0.305  -0.239

          Ground-State Mulliken Net Atomic Charges

     Atom                 Charge (a.u.)    Spin (a.u.)
  --------------------------------------------------------
      1 C                    -0.101772       0.605647
      2 C                    -0.171281      -0.050454
      3 C                    -0.014903       0.081491
      4 C                    -0.171854      -0.050503
      5 C                    -0.100740       0.606742
      6 N                    -0.216481      -0.202707
      7 H                     0.124272      -0.032265
      8 H                     0.130310       0.000800
      9 H                     0.141338      -0.004002
     10 H                     0.130306       0.000805
     11 H                     0.124293      -0.032341
     12 C                    -0.014901       0.080759
     13 H                     0.141414      -0.003973
  --------------------------------------------------------
  Sum of atomic charges =    -0.000000

                    Cartesian Multipole Moments
 -----------------------------------------------------------------
    Charge (ESU x 10^10)
                -0.0000
    Dipole Moment (Debye)
         X      -1.6656      Y      -2.7285      Z       0.6034
       Tot       3.2532
    Quadrupole Moments (Debye-Ang)
        XX     -38.8246     XY      -4.2011     YY     -43.3010
        XZ       0.6230     YZ       0.3338     ZZ     -42.7078

 Total job time:  10.05s(wall), 12.18s(cpu)
        *  Thank you very much for using Q-Chem.  Have a nice day.  *
