 Q-Chem 5.0, Q-Chem, Inc., Pleasanton, CA (2017)
 Q-Chem 5.0.2 for Intel X86 EM64T Linux

User input:
--------------------------------------------------------------
$molecule
0 2
C        1.6774494264    0.3775130876   -0.2339841621
C        1.1088802591   -0.8466465315   -0.3001627119
C       -0.3293362138   -1.0592492420   -0.0688964740
C       -1.1502957489    0.3402213035    0.0846810444
C       -0.3166385595    1.5351286417   -0.1446096668
N        0.9695577502    1.5797475958   -0.2040895693
H        2.7527683321    0.4949897241   -0.3401038867
H        1.7149907015   -1.7167235257   -0.5405367200
H       -0.7959040089   -1.8958152810   -0.5923514450
H       -2.1699443524    0.4132381868   -0.2986848120
H       -0.8540411968    2.4673425304   -0.3354672669
C       -0.9261495871   -0.6018192192    1.1840394596
H       -1.6813368020   -1.0879272699    1.7901662104
****
C        1.5767525004    0.4212072865   -0.1580425364
C        0.8156910173   -0.8228734704    0.1099907438
C       -0.5524346341   -0.9778871952   -0.5326191729
C       -1.1160168445    0.3308457910   -0.0023203351
C       -0.3589473536    1.5756861467   -0.2756034190
N        0.9707505214    1.5920276923   -0.3457360219
H        2.6637959667    0.4001447288   -0.2053232891
H        1.3921210898   -1.7361844504    0.2480245654
H       -0.9897678102   -1.7670236761   -1.1282713052
H       -2.2010546446    0.4094364865    0.0400074794
H       -0.8859801077    2.5153693575   -0.4296286867
C       -0.4780118944   -0.7118859543    0.9002367123
H       -0.8368978066   -1.2288627429    1.7792852654
$end

$rem
method                b3lyp
basis                 6-31g(d)
unrestricted          true
symmetry              off
sym_ignore            true
incdft                false
incfock               0
scf_convergence       8
thresh                14
jobtype               fsm
scf_guess             core
scf_guess_mix         5
scf_algorithm         diis
max_scf_cycles        100
fsm_nnode             21
fsm_ngrad             6
fsm_mode              2
fsm_opt_mode          2
$end

--------------------------------------------------------------

   20    -286.8549322113      9.97E-09 Convergence criterion met
 Total energy in the final basis set = -286.85493221
   19    -286.8584728457      3.64E-09 Convergence criterion met
 Total energy in the final basis set = -286.85847285
   21    -286.8544789630      8.03E-09 Convergence criterion met
 Total energy in the final basis set = -286.85447896
   21    -286.8524560371      5.13E-09 Convergence criterion met
 Total energy in the final basis set = -286.85245604
   21    -286.8538983490      9.76E-09 Convergence criterion met
 Total energy in the final basis set = -286.85389835
   19    -286.8573773894      8.69E-09 Convergence criterion met
 Total energy in the final basis set = -286.85737739
   20    -286.8570312288      1.94E-09 Convergence criterion met
 Total energy in the final basis set = -286.85703123
   19    -286.8568693070      3.67E-09 Convergence criterion met
 Total energy in the final basis set = -286.83109540
   22    -286.8307027310      9.87E-09 Convergence criterion met
 Total energy in the final basis set = -286.83070273
   23    -286.8310866752      1.54E-09 Convergence criterion met
 Total energy in the final basis set = -286.83108668
   22    -286.8307126401      9.76E-09 Convergence criterion met
 Total energy in the final basis set = -286.83071264
   23    -286.8310781552      1.54E-09 Convergence criterion met
 Total energy in the final basis set = -286.83107816
   22    -286.8307221225      9.77E-09 Convergence criterion met
 Total energy in the final basis set = -286.83072212
   23    -286.8310740999      1.54E-09 Convergence criterion met
 Total energy in the final basis set = -286.83107410
   22    -286.8307267677      9.79E-09 Convergence criterion met
 Total energy in the final basis set = -286.83072677

                    Orbital Energies (a.u.)
 --------------------------------------------------------------

 Alpha MOs
 -- Occupied --
-14.319 -10.228 -10.220 -10.217 -10.216 -10.215 -10.215  -0.950
 -0.889  -0.757  -0.651  -0.640  -0.578  -0.542  -0.482  -0.479
 -0.462  -0.418  -0.391  -0.369  -0.340  -0.308  -0.271  -0.235
 -0.169

 Beta MOs
 -- Occupied --
-14.322 -10.230 -10.216 -10.214 -10.214 -10.210 -10.208  -0.946
 -0.885  -0.749  -0.645  -0.633  -0.568  -0.538  -0.477  -0.473
 -0.460  -0.415  -0.378  -0.363  -0.332  -0.301  -0.260  -0.229

          Ground-State Mulliken Net Atomic Charges

     Atom                 Charge (a.u.)    Spin (a.u.)
  --------------------------------------------------------
      1 C                     0.057782       0.530004
      2 C                    -0.184440      -0.184831
      3 C                    -0.074242       0.052319
      4 C                    -0.215238      -0.033414
      5 C                     0.088529       0.405282
      6 N                    -0.389017      -0.158261
      7 H                     0.139072      -0.029344
      8 H                     0.148555       0.010254
      9 H                     0.152145      -0.003133
     10 H                     0.145283       0.008436
     11 H                     0.137461      -0.021032
     12 C                    -0.163462       0.435559
     13 H                     0.157572      -0.011838
  --------------------------------------------------------
  Sum of atomic charges =     0.000000

                    Cartesian Multipole Moments
 -----------------------------------------------------------------
    Charge (ESU x 10^10)
                 0.0000
    Dipole Moment (Debye)
         X      -1.5854      Y      -2.4062      Z      -0.0844
       Tot       2.8828
    Quadrupole Moments (Debye-Ang)
        XX     -37.2649     XY      -3.5471     YY     -41.3237
        XZ      -0.2175     YZ       0.4914     ZZ     -42.2935

             Standard Nuclear Orientation (Angstroms)
    I     Atom           X                Y                Z
 ----------------------------------------------------------------
    1      C       1.5953338844     0.4067361017    -0.1897943789
    2      C       0.9086320669    -0.8397409949    -0.0649906087
    3      C      -0.5126109957    -0.9956759066    -0.4192020483
    4      C      -1.1069925506     0.3330125840     0.0367531990
    5      C      -0.3433821655     1.5702450987    -0.2598141450
    6      N       0.9595827628     1.5926281024    -0.3386283302
    7      H       2.6835607586     0.4311459777    -0.1477095139
    8      H       1.5213434727    -1.7402807548     0.0056334112
    9      H      -0.9667137477    -1.8040614407    -0.9805469258
   10      H      -2.1949569365     0.4108182279    -0.0421480633
   11      H      -0.8847285105     2.5024367666    -0.4149514210
   12      C      -0.5791075294    -0.6885768809     1.0010056585
   13      H      -1.0904739228    -1.1865992606     1.8157054302
 ----------------------------------------------------------------

 Total job time:  3497.79s(wall), 4693.07s(cpu)
        *  Thank you very much for using Q-Chem.  Have a nice day.  *
