 Q-Chem 5.0, Q-Chem, Inc., Pleasanton, CA (2017)
 Q-Chem 5.0.2 for Intel X86 EM64T Linux

User input:
--------------------------------------------------------------
$molecule
0 2
C        1.5984347897    0.3885287601   -0.1739450571
C        0.9424011772   -0.8446051493   -0.1757696699
C       -0.5066546816   -0.9919532158   -0.4031800304
C       -1.1200555247    0.3449233748    0.0855975749
C       -0.3459791143    1.5639288277   -0.2760550508
N        0.9495447869    1.5831455464   -0.3611205073
H        2.6661205843    0.4391808047    0.0133393687
H        1.5248361562   -1.7547741179   -0.0538157379
H       -0.9973499013   -1.7339315185   -1.0258078735
H       -2.2037119529    0.4310588253    0.0006652124
H       -0.8907344675    2.4711123322   -0.5366950965
C       -0.6326716826   -0.6962835615    1.0151240085
H       -0.9946935826   -1.2082432875    1.8929751225
$end

$rem
method                b3lyp
basis                 6-31+g(d,p)
unrestricted          true
symmetry              off
sym_ignore            true
incdft                false
incfock               0
scf_convergence       8
thresh                14
jobtype               rpath
scf_guess             core
scf_guess_mix         5
scf_algorithm         diis
max_scf_cycles        100
rpath_direction       1
rpath_tol_displacement 1000
rpath_max_cycles      50
geom_opt_max_cycles   300
geom_opt_hessian      read
$end

--------------------------------------------------------------

   22    -286.8561843434      7.16E-09 Convergence criterion met
 Total energy in the final basis set = -286.85618434
   22    -286.8576162315      5.54E-09 Convergence criterion met
 Total energy in the final basis set = -286.85761623
   22    -286.8575518230      6.12E-09 Convergence criterion met
 Total energy in the final basis set = -286.85755182
   22    -286.8576170735      5.54E-09 Convergence criterion met
 Total energy in the final basis set = -286.85761707
   22    -286.8616601952      3.73E-09 Convergence criterion met
 Total energy in the final basis set = -286.86166020
   22    -286.8616297738      3.68E-09 Convergence criterion met
 Total energy in the final basis set = -286.86162977
   22    -286.8616660289      3.71E-09 Convergence criterion met
 Total energy in the final basis set = -286.86166603
   21    -286.8669343370      7.85E-09 Convergence criterion met
 Total energy in the final basis set = -286.86872995
   21    -286.8764841230      5.36E-09 Convergence criterion met
 Total energy in the final basis set = -286.87648412
   21    -286.8764807888      6.44E-09 Convergence criterion met
 Total energy in the final basis set = -286.87648079
   21    -286.8764860055      5.10E-09 Convergence criterion met
 Total energy in the final basis set = -286.87648601
   22    -286.8735146884      6.15E-09 Convergence criterion met
 Total energy in the final basis set = -286.87351469
   21    -286.8764948909      8.35E-09 Convergence criterion met
 Total energy in the final basis set = -286.87649489
   21    -286.8764904129      8.16E-09 Convergence criterion met
 Total energy in the final basis set = -286.87649041
   21    -286.8764952400      8.31E-09 Convergence criterion met
 Total energy in the final basis set = -286.87649524

                    Orbital Energies (a.u.)
 --------------------------------------------------------------

 Alpha MOs
 -- Occupied --
-14.337 -10.240 -10.235 -10.232 -10.230 -10.217 -10.206  -0.946
 -0.878  -0.776  -0.677  -0.651  -0.579  -0.540  -0.500  -0.492
 -0.460  -0.435  -0.387  -0.381  -0.370  -0.309  -0.267  -0.241
 -0.228

 Beta MOs
 -- Occupied --
-14.337 -10.239 -10.235 -10.232 -10.218 -10.216 -10.205  -0.944
 -0.869  -0.774  -0.669  -0.649  -0.565  -0.535  -0.497  -0.483
 -0.456  -0.432  -0.386  -0.379  -0.362  -0.300  -0.263  -0.236

          Ground-State Mulliken Net Atomic Charges

     Atom                 Charge (a.u.)    Spin (a.u.)
  --------------------------------------------------------
      1 C                    -0.252055      -0.037249
      2 C                     0.077292       0.051706
      3 C                    -0.144196      -0.029788
      4 C                    -0.018990       0.029729
      5 C                    -0.051758      -0.051482
      6 N                    -0.182058       0.017931
      7 H                     0.124882       0.000894
      8 H                     0.133092       0.002908
      9 H                     0.144265       0.016537
     10 H                     0.144236       0.023685
     11 H                     0.128281       0.005033
     12 C                    -0.251570       0.991989
     13 H                     0.148579      -0.021892
  --------------------------------------------------------
  Sum of atomic charges =     0.000000

                    Cartesian Multipole Moments
 -----------------------------------------------------------------
    Charge (ESU x 10^10)
                 0.0000
    Dipole Moment (Debye)
         X      -2.2009      Y      -2.2103      Z      -0.2157
       Tot       3.1266
    Quadrupole Moments (Debye-Ang)
        XX     -38.0771     XY      -3.3133     YY     -42.9246
        XZ      -0.6646     YZ       0.4384     ZZ     -43.8711

             Standard Nuclear Orientation (Angstroms)
    I     Atom           X                Y                Z
 ----------------------------------------------------------------
    1      C       1.5984347897     0.3885287601    -0.1739450571
    2      C       0.9424011772    -0.8446051493    -0.1757696699
    3      C      -0.5066546816    -0.9919532158    -0.4031800304
    4      C      -1.1200555247     0.3449233748     0.0855975749
    5      C      -0.3459791143     1.5639288277    -0.2760550508
    6      N       0.9495447869     1.5831455464    -0.3611205073
    7      H       2.6661205843     0.4391808047     0.0133393687
    8      H       1.5248361562    -1.7547741179    -0.0538157379
    9      H      -0.9973499013    -1.7339315185    -1.0258078735
   10      H      -2.2037119529     0.4310588253     0.0006652124
   11      H      -0.8907344675     2.4711123322    -0.5366950965
   12      C      -0.6326716826    -0.6962835615     1.0151240085
   13      H      -0.9946935826    -1.2082432875     1.8929751225
 ----------------------------------------------------------------

 Total job time:  15902.56s(wall), 33785.24s(cpu)
        *  Thank you very much for using Q-Chem.  Have a nice day.  *
