 Q-Chem 5.0, Q-Chem, Inc., Pleasanton, CA (2017)
 Q-Chem 5.0.2 for Intel X86 EM64T Linux

User input:
--------------------------------------------------------------
$molecule
0 2
C        1.5767691825    0.4213666559   -0.1576053980
C        0.8156650881   -0.8229764499    0.1096785825
C       -0.5524954911   -0.9776632679   -0.5327645269
C       -1.1159425830    0.3309439894   -0.0016188268
C       -0.3588991119    1.5756439242   -0.2754661395
N        0.9707744973    1.5920627324   -0.3456524051
H        2.6638320176    0.4005851631   -0.2041885756
H        1.3918924943   -1.7363941838    0.2476437722
H       -0.9903885849   -1.7662940803   -1.1286850695
H       -2.2009376715    0.4097478073    0.0414728889
H       -0.8860700760    2.5147907341   -0.4321474119
C       -0.4778645425   -0.7121652157    0.9002041232
H       -0.8363352189   -1.2296478088    1.7791289863
$end

$rem
method                b3lyp
basis                 6-31g(d)
unrestricted          true
symmetry              off
sym_ignore            true
incdft                false
incfock               0
scf_convergence       8
thresh                14
jobtype               opt
scf_guess             core
scf_guess_mix         5
scf_algorithm         diis
max_scf_cycles        100
geom_opt_max_cycles   300
$end

--------------------------------------------------------------

   19    -286.8584720176      3.64E-09 Convergence criterion met
 Total energy in the final basis set = -286.85847202

             Standard Nuclear Orientation (Angstroms)
    I     Atom           X                Y                Z
 ----------------------------------------------------------------
    1      C       1.5767525004     0.4212072865    -0.1580425364
    2      C       0.8156910173    -0.8228734704     0.1099907438
    3      C      -0.5524346341    -0.9778871952    -0.5326191729
    4      C      -1.1160168445     0.3308457910    -0.0023203351
    5      C      -0.3589473536     1.5756861467    -0.2756034190
    6      N       0.9707505214     1.5920276923    -0.3457360219
    7      H       2.6637959667     0.4001447288    -0.2053232891
    8      H       1.3921210898    -1.7361844504     0.2480245654
    9      H      -0.9897678102    -1.7670236761    -1.1282713052
   10      H      -2.2010546446     0.4094364865     0.0400074794
   11      H      -0.8859801077     2.5153693575    -0.4296286867
   12      C      -0.4780118944    -0.7118859543     0.9002367123
   13      H      -0.8368978066    -1.2288627429     1.7792852654
 ----------------------------------------------------------------

   13    -286.8584728643      9.72E-09 Convergence criterion met
 Total energy in the final basis set = -286.85847286
 Final energy is   -286.858472864343
 **  OPTIMIZATION CONVERGED  **

                    Orbital Energies (a.u.)
 --------------------------------------------------------------

 Alpha MOs
 -- Occupied --
-14.317 -10.216 -10.216 -10.215 -10.215 -10.215 -10.215  -0.960
 -0.896  -0.750  -0.643  -0.635  -0.589  -0.545  -0.482  -0.471
 -0.465  -0.408  -0.395  -0.365  -0.338  -0.299  -0.298  -0.227
 -0.173

 Beta MOs
 -- Occupied --
-14.320 -10.216 -10.216 -10.213 -10.213 -10.207 -10.207  -0.955
 -0.894  -0.738  -0.631  -0.630  -0.584  -0.542  -0.476  -0.466
 -0.464  -0.405  -0.377  -0.362  -0.323  -0.298  -0.294  -0.227

          Ground-State Mulliken Net Atomic Charges

     Atom                 Charge (a.u.)    Spin (a.u.)
  --------------------------------------------------------
      1 C                     0.076357       0.597263
      2 C                    -0.221100      -0.053272
      3 C                    -0.089918       0.094697
      4 C                    -0.221043      -0.053339
      5 C                     0.076607       0.597241
      6 N                    -0.395196      -0.205398
      7 H                     0.135618      -0.032053
      8 H                     0.142110       0.000514
      9 H                     0.154204      -0.004291
     10 H                     0.142136       0.000519
     11 H                     0.135567      -0.032059
     12 C                    -0.089549       0.094456
     13 H                     0.154207      -0.004280
  --------------------------------------------------------
  Sum of atomic charges =     0.000000

                    Cartesian Multipole Moments
 -----------------------------------------------------------------
    Charge (ESU x 10^10)
                -0.0000
    Dipole Moment (Debye)
         X      -1.5273      Y      -2.5051      Z       0.5432
       Tot       2.9838
    Quadrupole Moments (Debye-Ang)
        XX     -37.8475     XY      -3.6680     YY     -41.7565
        XZ       0.5163     YZ       0.2716     ZZ     -41.3484

 Total job time:  75.34s(wall), 102.37s(cpu)
        *  Thank you very much for using Q-Chem.  Have a nice day.  *
