 Q-Chem 5.0, Q-Chem, Inc., Pleasanton, CA (2017)
 Q-Chem 5.0.2 for Intel X86 EM64T Linux

User input:
--------------------------------------------------------------
$molecule
0 2
C        1.6774688141    0.3774503491   -0.2344494559
C        1.1088240356   -0.8462505356   -0.3004518600
C       -0.3292781738   -1.0590548081   -0.0694932338
C       -1.1502135752    0.3399325069    0.0839446471
C       -0.3165333041    1.5350772917   -0.1445994920
N        0.9694900417    1.5798387480   -0.2042314064
H        2.7527781877    0.4947146914   -0.3403912610
H        1.7151986111   -1.7167416076   -0.5388188414
H       -0.7972305314   -1.8957382884   -0.5914925113
H       -2.1699032729    0.4131518336   -0.2992776960
H       -0.8541783408    2.4674113564   -0.3341600216
C       -0.9261070981   -0.6008677321    1.1838200781
H       -1.6803153939   -1.0889238048    1.7896010540
$end

$rem
method                b3lyp
basis                 6-31g(d)
unrestricted          true
symmetry              off
sym_ignore            true
incdft                false
incfock               0
scf_convergence       8
thresh                14
jobtype               opt
scf_guess             core
scf_guess_mix         5
scf_algorithm         diis
max_scf_cycles        100
geom_opt_max_cycles   300
$end

--------------------------------------------------------------

   20    -286.8549308502      9.75E-09 Convergence criterion met
 Total energy in the final basis set = -286.85493085
   16    -286.8549318771      6.45E-09 Convergence criterion met
 Total energy in the final basis set = -286.85493188

             Standard Nuclear Orientation (Angstroms)
    I     Atom           X                Y                Z
 ----------------------------------------------------------------
    1      C       1.6774494264     0.3775130876    -0.2339841621
    2      C       1.1088802591    -0.8466465315    -0.3001627119
    3      C      -0.3293362138    -1.0592492420    -0.0688964740
    4      C      -1.1502957489     0.3402213035     0.0846810444
    5      C      -0.3166385595     1.5351286417    -0.1446096668
    6      N       0.9695577502     1.5797475958    -0.2040895693
    7      H       2.7527683321     0.4949897241    -0.3401038867
    8      H       1.7149907015    -1.7167235257    -0.5405367200
    9      H      -0.7959040089    -1.8958152810    -0.5923514450
   10      H      -2.1699443524     0.4132381868    -0.2986848120
   11      H      -0.8540411968     2.4673425304    -0.3354672669
   12      C      -0.9261495871    -0.6018192192     1.1840394596
   13      H      -1.6813368020    -1.0879272699     1.7901662104
 ----------------------------------------------------------------

   16    -286.8549322114      6.44E-09 Convergence criterion met
 Total energy in the final basis set = -286.85493221
 Final energy is   -286.854932211427
 **  OPTIMIZATION CONVERGED  **

                    Orbital Energies (a.u.)
 --------------------------------------------------------------

 Alpha MOs
 -- Occupied --
-14.323 -10.230 -10.224 -10.221 -10.219 -10.206 -10.195  -0.934
 -0.868  -0.765  -0.667  -0.641  -0.570  -0.532  -0.491  -0.482
 -0.451  -0.425  -0.377  -0.373  -0.359  -0.300  -0.256  -0.229
 -0.219

 Beta MOs
 -- Occupied --
-14.323 -10.229 -10.224 -10.221 -10.207 -10.205 -10.194  -0.932
 -0.858  -0.763  -0.659  -0.639  -0.556  -0.527  -0.488  -0.473
 -0.447  -0.422  -0.375  -0.371  -0.351  -0.291  -0.250  -0.225

          Ground-State Mulliken Net Atomic Charges

     Atom                 Charge (a.u.)    Spin (a.u.)
  --------------------------------------------------------
      1 C                    -0.009231      -0.014809
      2 C                    -0.083993       0.041338
      3 C                    -0.175782      -0.016503
      4 C                    -0.194449      -0.016810
      5 C                     0.088580       0.019075
      6 N                    -0.391477       0.002692
      7 H                     0.136788       0.000776
      8 H                     0.139589       0.003611
      9 H                     0.155148       0.016925
     10 H                     0.155389       0.022606
     11 H                     0.142810       0.005869
     12 C                    -0.121114       0.958309
     13 H                     0.157744      -0.023082
  --------------------------------------------------------
  Sum of atomic charges =    -0.000000

                    Cartesian Multipole Moments
 -----------------------------------------------------------------
    Charge (ESU x 10^10)
                 0.0000
    Dipole Moment (Debye)
         X      -1.9682      Y      -2.0181      Z      -0.2674
       Tot       2.8316
    Quadrupole Moments (Debye-Ang)
        XX     -37.0835     XY      -2.9988     YY     -41.5061
        XZ      -0.5685     YZ       0.4111     ZZ     -42.3169

 Total job time:  120.80s(wall), 161.41s(cpu)
        *  Thank you very much for using Q-Chem.  Have a nice day.  *
