 Q-Chem 5.0, Q-Chem, Inc., Pleasanton, CA (2017)
 Q-Chem 5.0.2 for Intel X86 EM64T Linux

User input:
--------------------------------------------------------------
$molecule
0 2
C        1.5953338844    0.4067361017   -0.1897943789
C        0.9086320669   -0.8397409949   -0.0649906087
C       -0.5126109957   -0.9956759066   -0.4192020483
C       -1.1069925506    0.3330125840    0.0367531990
C       -0.3433821655    1.5702450987   -0.2598141450
N        0.9595827628    1.5926281024   -0.3386283302
H        2.6835607586    0.4311459777   -0.1477095139
H        1.5213434727   -1.7402807548    0.0056334112
H       -0.9667137477   -1.8040614407   -0.9805469258
H       -2.1949569365    0.4108182279   -0.0421480633
H       -0.8847285105    2.5024367666   -0.4149514210
C       -0.5791075294   -0.6885768809    1.0010056585
H       -1.0904739228   -1.1865992606    1.8157054302
$end

$rem
method                b3lyp
basis                 6-31g(d)
unrestricted          true
symmetry              off
sym_ignore            true
incdft                false
incfock               0
scf_convergence       8
thresh                14
jobtype               sp
scf_guess             core
scf_guess_mix         5
scf_algorithm         diis
max_scf_cycles        100
$end

--------------------------------------------------------------

             Standard Nuclear Orientation (Angstroms)
    I     Atom           X                Y                Z
 ----------------------------------------------------------------
    1      C       1.5953338844     0.4067361017    -0.1897943789
    2      C       0.9086320669    -0.8397409949    -0.0649906087
    3      C      -0.5126109957    -0.9956759066    -0.4192020483
    4      C      -1.1069925506     0.3330125840     0.0367531990
    5      C      -0.3433821655     1.5702450987    -0.2598141450
    6      N       0.9595827628     1.5926281024    -0.3386283302
    7      H       2.6835607586     0.4311459777    -0.1477095139
    8      H       1.5213434727    -1.7402807548     0.0056334112
    9      H      -0.9667137477    -1.8040614407    -0.9805469258
   10      H      -2.1949569365     0.4108182279    -0.0421480633
   11      H      -0.8847285105     2.5024367666    -0.4149514210
   12      C      -0.5791075294    -0.6885768809     1.0010056585
   13      H      -1.0904739228    -1.1865992606     1.8157054302
 ----------------------------------------------------------------

   21    -286.8362367651      7.17E-09 Convergence criterion met
 Total energy in the final basis set = -286.83623677

                    Orbital Energies (a.u.)
 --------------------------------------------------------------

 Alpha MOs
 -- Occupied --
-14.319 -10.227 -10.218 -10.218 -10.215 -10.215 -10.214  -0.950
 -0.889  -0.757  -0.649  -0.640  -0.580  -0.542  -0.482  -0.478
 -0.464  -0.418  -0.389  -0.369  -0.339  -0.307  -0.274  -0.236
 -0.166

 Beta MOs
 -- Occupied --
-14.322 -10.229 -10.216 -10.214 -10.212 -10.212 -10.206  -0.946
 -0.885  -0.748  -0.643  -0.632  -0.571  -0.539  -0.478  -0.472
 -0.461  -0.415  -0.375  -0.364  -0.330  -0.300  -0.264  -0.231

          Ground-State Mulliken Net Atomic Charges

     Atom                 Charge (a.u.)    Spin (a.u.)
  --------------------------------------------------------
      1 C                     0.060390       0.554636
      2 C                    -0.187137      -0.155691
      3 C                    -0.075493       0.057311
      4 C                    -0.213286      -0.037247
      5 C                     0.085324       0.437705
      6 N                    -0.391948      -0.165779
      7 H                     0.138133      -0.030472
      8 H                     0.150192       0.007670
      9 H                     0.151640      -0.003253
     10 H                     0.145357       0.006231
     11 H                     0.136354      -0.023039
     12 C                    -0.158121       0.363326
     13 H                     0.158594      -0.011398
  --------------------------------------------------------
  Sum of atomic charges =     0.000000

                    Cartesian Multipole Moments
 -----------------------------------------------------------------
    Charge (ESU x 10^10)
                -0.0000
    Dipole Moment (Debye)
         X      -1.5897      Y      -2.4698      Z       0.0889
       Tot       2.9385
    Quadrupole Moments (Debye-Ang)
        XX     -37.3327     XY      -3.6331     YY     -41.4439
        XZ       0.0005     YZ       0.4633     ZZ     -42.1016

 Total job time:  46.79s(wall), 56.63s(cpu)
        *  Thank you very much for using Q-Chem.  Have a nice day.  *
