 Q-Chem 5.0, Q-Chem, Inc., Pleasanton, CA (2017)
 Q-Chem 5.0.2 for Intel X86 EM64T Linux

User input:
--------------------------------------------------------------
$molecule
0 2
C        1.5976126135    0.3885763218   -0.1776276323
C        0.9439492644   -0.8434021693   -0.1762959441
C       -0.5063964974   -0.9918125520   -0.3997981535
C       -1.1186606020    0.3438074447    0.0867999488
C       -0.3439361026    1.5629941426   -0.2745452847
N        0.9495767335    1.5835619161   -0.3633053957
H        2.6663765629    0.4406842054    0.0082255959
H        1.5253027802   -1.7541158617   -0.0499286249
H       -0.9967914044   -1.7321770011   -1.0261342142
H       -2.2025638523    0.4285507254   -0.0013131561
H       -0.8899574730    2.4711514814   -0.5327877135
C       -0.6308340286   -0.6970522058    1.0169265604
H       -1.0041914075   -1.2086788270    1.8910962777
$end

$rem
method                b3lyp
basis                 6-31+g(d,p)
unrestricted          true
symmetry              off
sym_ignore            true
incdft                false
incfock               0
scf_convergence       8
thresh                14
jobtype               ts
scf_guess             read
scf_algorithm         diis
max_scf_cycles        100
geom_opt_max_cycles   500
geom_opt_dmax         100
geom_opt_tol_gradient 10
geom_opt_hessian      read
$end

--------------------------------------------------------------

    2    -286.8561657849      1.24E-09 Convergence criterion met
 Total energy in the final basis set = -286.85616578
   13    -286.8561843359      5.50E-09 Convergence criterion met
 Total energy in the final basis set = -286.85618434

             Standard Nuclear Orientation (Angstroms)
    I     Atom           X                Y                Z
 ----------------------------------------------------------------
    1      C       1.5984347897     0.3885287601    -0.1739450571
    2      C       0.9424011772    -0.8446051493    -0.1757696699
    3      C      -0.5066546816    -0.9919532158    -0.4031800304
    4      C      -1.1200555247     0.3449233748     0.0855975749
    5      C      -0.3459791143     1.5639288277    -0.2760550508
    6      N       0.9495447869     1.5831455464    -0.3611205073
    7      H       2.6661205843     0.4391808047     0.0133393687
    8      H       1.5248361562    -1.7547741179    -0.0538157379
    9      H      -0.9973499013    -1.7339315185    -1.0258078735
   10      H      -2.2037119529     0.4310588253     0.0006652124
   11      H      -0.8907344675     2.4711123322    -0.5366950965
   12      C      -0.6326716826    -0.6962835615     1.0151240085
   13      H      -0.9946935826    -1.2082432875     1.8929751225
 ----------------------------------------------------------------

    8    -286.8561843435      5.01E-09 Convergence criterion met
 Total energy in the final basis set = -286.85618434
 Final energy is   -286.856184343458
 **  OPTIMIZATION CONVERGED  **

                    Orbital Energies (a.u.)
 --------------------------------------------------------------

 Alpha MOs
 -- Occupied --
-14.335 -10.233 -10.229 -10.229 -10.227 -10.226 -10.221  -0.957
 -0.894  -0.769  -0.661  -0.650  -0.590  -0.546  -0.494  -0.491
 -0.473  -0.434  -0.390  -0.380  -0.355  -0.311  -0.277  -0.259
 -0.175

 Beta MOs
 -- Occupied --
-14.337 -10.231 -10.229 -10.228 -10.228 -10.216 -10.215  -0.953
 -0.889  -0.763  -0.655  -0.644  -0.577  -0.542  -0.488  -0.486
 -0.470  -0.431  -0.380  -0.376  -0.349  -0.306  -0.264  -0.248

          Ground-State Mulliken Net Atomic Charges

     Atom                 Charge (a.u.)    Spin (a.u.)
  --------------------------------------------------------
      1 C                    -0.194174       0.427717
      2 C                    -0.084048      -0.193792
      3 C                     0.052016      -0.001417
      4 C                    -0.135710      -0.048245
      5 C                    -0.038468       0.277295
      6 N                    -0.192590      -0.095541
      7 H                     0.126859      -0.023053
      8 H                     0.140476       0.010886
      9 H                     0.139504       0.000527
     10 H                     0.137576       0.019271
     11 H                     0.124898      -0.013499
     12 C                    -0.219754       0.661951
     13 H                     0.143415      -0.022099
  --------------------------------------------------------
  Sum of atomic charges =     0.000000

                    Cartesian Multipole Moments
 -----------------------------------------------------------------
    Charge (ESU x 10^10)
                 0.0000
    Dipole Moment (Debye)
         X      -1.8157      Y      -2.4644      Z       0.2356
       Tot       3.0701
    Quadrupole Moments (Debye-Ang)
        XX     -38.8901     XY      -4.0598     YY     -42.8305
        XZ       0.8457     YZ       0.4956     ZZ     -43.2586

 Total job time:  107.68s(wall), 173.28s(cpu)
        *  Thank you very much for using Q-Chem.  Have a nice day.  *
