 Q-Chem 5.0, Q-Chem, Inc., Pleasanton, CA (2017)
 Q-Chem 5.0.2 for Intel X86 EM64T Linux

User input:
--------------------------------------------------------------
$molecule
0 2
C        1.5976126135    0.3885763218   -0.1776276323
C        0.9439492644   -0.8434021693   -0.1762959441
C       -0.5063964974   -0.9918125520   -0.3997981535
C       -1.1186606020    0.3438074447    0.0867999488
C       -0.3439361026    1.5629941426   -0.2745452847
N        0.9495767335    1.5835619161   -0.3633053957
H        2.6663765629    0.4406842054    0.0082255959
H        1.5253027802   -1.7541158617   -0.0499286249
H       -0.9967914044   -1.7321770011   -1.0261342142
H       -2.2025638523    0.4285507254   -0.0013131561
H       -0.8899574730    2.4711514814   -0.5327877135
C       -0.6308340286   -0.6970522058    1.0169265604
H       -1.0041914075   -1.2086788270    1.8910962777
$end

$rem
method                b3lyp
basis                 6-31g(d)
unrestricted          true
symmetry              off
sym_ignore            true
incdft                false
incfock               0
scf_convergence       8
thresh                14
jobtype               sp
scf_guess             read
scf_algorithm         diis
max_scf_cycles        100
$end

--------------------------------------------------------------

             Standard Nuclear Orientation (Angstroms)
    I     Atom           X                Y                Z
 ----------------------------------------------------------------
    1      C       1.5976126135     0.3885763218    -0.1776276323
    2      C       0.9439492644    -0.8434021693    -0.1762959441
    3      C      -0.5063964974    -0.9918125520    -0.3997981535
    4      C      -1.1186606020     0.3438074447     0.0867999488
    5      C      -0.3439361026     1.5629941426    -0.2745452847
    6      N       0.9495767335     1.5835619161    -0.3633053957
    7      H       2.6663765629     0.4406842054     0.0082255959
    8      H       1.5253027802    -1.7541158617    -0.0499286249
    9      H      -0.9967914044    -1.7321770011    -1.0261342142
   10      H      -2.2025638523     0.4285507254    -0.0013131561
   11      H      -0.8899574730     2.4711514814    -0.5327877135
   12      C      -0.6308340286    -0.6970522058     1.0169265604
   13      H      -1.0041914075    -1.2086788270     1.8910962777
 ----------------------------------------------------------------

    2    -286.8343141056      4.95E-09 Convergence criterion met
 Total energy in the final basis set = -286.83431411

                    Orbital Energies (a.u.)
 --------------------------------------------------------------

 Alpha MOs
 -- Occupied --
-14.321 -10.223 -10.218 -10.218 -10.217 -10.214 -10.210  -0.945
 -0.883  -0.759  -0.651  -0.640  -0.581  -0.538  -0.484  -0.483
 -0.464  -0.425  -0.380  -0.371  -0.344  -0.300  -0.266  -0.247
 -0.163

 Beta MOs
 -- Occupied --
-14.323 -10.220 -10.219 -10.218 -10.217 -10.205 -10.204  -0.941
 -0.877  -0.753  -0.645  -0.633  -0.568  -0.533  -0.479  -0.476
 -0.461  -0.422  -0.369  -0.367  -0.338  -0.295  -0.252  -0.236

          Ground-State Mulliken Net Atomic Charges

     Atom                 Charge (a.u.)    Spin (a.u.)
  --------------------------------------------------------
      1 C                     0.040102       0.418984
      2 C                    -0.149842      -0.198808
      3 C                    -0.110847       0.028046
      4 C                    -0.196409      -0.039291
      5 C                     0.087156       0.278172
      6 N                    -0.390205      -0.102294
      7 H                     0.137978      -0.023038
      8 H                     0.150944       0.011648
      9 H                     0.151400       0.000328
     10 H                     0.148100       0.019151
     11 H                     0.138033      -0.013383
     12 C                    -0.162652       0.643933
     13 H                     0.156241      -0.023449
  --------------------------------------------------------
  Sum of atomic charges =    -0.000000

                    Cartesian Multipole Moments
 -----------------------------------------------------------------
    Charge (ESU x 10^10)
                -0.0000
    Dipole Moment (Debye)
         X      -1.6363      Y      -2.2844      Z       0.2084
       Tot       2.8178
    Quadrupole Moments (Debye-Ang)
        XX     -37.7109     XY      -3.6185     YY     -41.3890
        XZ       0.6838     YZ       0.3515     ZZ     -41.7306

 Total job time:  12.87s(wall), 7.16s(cpu)
        *  Thank you very much for using Q-Chem.  Have a nice day.  *
