 Q-Chem 5.0, Q-Chem, Inc., Pleasanton, CA (2017)
 Q-Chem 5.0.2 for Intel X86 EM64T Linux

User input:
--------------------------------------------------------------
$molecule
0 2
C        1.5976126135    0.3885763218   -0.1776276323
C        0.9439492644   -0.8434021693   -0.1762959441
C       -0.5063964974   -0.9918125520   -0.3997981535
C       -1.1186606020    0.3438074447    0.0867999488
C       -0.3439361026    1.5629941426   -0.2745452847
N        0.9495767335    1.5835619161   -0.3633053957
H        2.6663765629    0.4406842054    0.0082255959
H        1.5253027802   -1.7541158617   -0.0499286249
H       -0.9967914044   -1.7321770011   -1.0261342142
H       -2.2025638523    0.4285507254   -0.0013131561
H       -0.8899574730    2.4711514814   -0.5327877135
C       -0.6308340286   -0.6970522058    1.0169265604
H       -1.0041914075   -1.2086788270    1.8910962777
$end

$rem
method                b3lyp
basis                 6-31+g(d,p)
unrestricted          true
symmetry              off
sym_ignore            true
incdft                false
incfock               0
scf_convergence       8
thresh                14
jobtype               sp
scf_guess             core
scf_guess_mix         5
scf_algorithm         diis
max_scf_cycles        100
$end

--------------------------------------------------------------

             Standard Nuclear Orientation (Angstroms)
    I     Atom           X                Y                Z
 ----------------------------------------------------------------
    1      C       1.5976126135     0.3885763218    -0.1776276323
    2      C       0.9439492644    -0.8434021693    -0.1762959441
    3      C      -0.5063964974    -0.9918125520    -0.3997981535
    4      C      -1.1186606020     0.3438074447     0.0867999488
    5      C      -0.3439361026     1.5629941426    -0.2745452847
    6      N       0.9495767335     1.5835619161    -0.3633053957
    7      H       2.6663765629     0.4406842054     0.0082255959
    8      H       1.5253027802    -1.7541158617    -0.0499286249
    9      H      -0.9967914044    -1.7321770011    -1.0261342142
   10      H      -2.2025638523     0.4285507254    -0.0013131561
   11      H      -0.8899574730     2.4711514814    -0.5327877135
   12      C      -0.6308340286    -0.6970522058     1.0169265604
   13      H      -1.0041914075    -1.2086788270     1.8910962777
 ----------------------------------------------------------------

   22    -286.8561657849      6.06E-09 Convergence criterion met
 Total energy in the final basis set = -286.85616578

                    Orbital Energies (a.u.)
 --------------------------------------------------------------

 Alpha MOs
 -- Occupied --
-14.336 -10.234 -10.229 -10.229 -10.227 -10.226 -10.221  -0.958
 -0.895  -0.770  -0.661  -0.650  -0.590  -0.546  -0.494  -0.491
 -0.474  -0.434  -0.390  -0.380  -0.355  -0.311  -0.278  -0.259
 -0.175

 Beta MOs
 -- Occupied --
-14.337 -10.231 -10.230 -10.228 -10.228 -10.216 -10.215  -0.954
 -0.890  -0.764  -0.655  -0.644  -0.577  -0.542  -0.488  -0.486
 -0.471  -0.431  -0.380  -0.376  -0.349  -0.306  -0.264  -0.248

          Ground-State Mulliken Net Atomic Charges

     Atom                 Charge (a.u.)    Spin (a.u.)
  --------------------------------------------------------
      1 C                    -0.194418       0.425654
      2 C                    -0.083204      -0.192771
      3 C                     0.052852      -0.002521
      4 C                    -0.137606      -0.046815
      5 C                    -0.036182       0.272131
      6 N                    -0.192008      -0.094121
      7 H                     0.126771      -0.022976
      8 H                     0.140655       0.010783
      9 H                     0.139483       0.000503
     10 H                     0.137574       0.019146
     11 H                     0.124719      -0.013282
     12 C                    -0.221966       0.665942
     13 H                     0.143329      -0.021671
  --------------------------------------------------------
  Sum of atomic charges =     0.000000

                    Cartesian Multipole Moments
 -----------------------------------------------------------------
    Charge (ESU x 10^10)
                 0.0000
    Dipole Moment (Debye)
         X      -1.8175      Y      -2.4517      Z       0.2255
       Tot       3.0602
    Quadrupole Moments (Debye-Ang)
        XX     -38.8837     XY      -4.0326     YY     -42.8245
        XZ       0.8446     YZ       0.5078     ZZ     -43.2812

 Total job time:  65.12s(wall), 114.47s(cpu)
        *  Thank you very much for using Q-Chem.  Have a nice day.  *
