 Q-Chem 5.0, Q-Chem, Inc., Pleasanton, CA (2017)
 Q-Chem 5.0.2 for Intel X86 EM64T Linux

User input:
--------------------------------------------------------------
$molecule
0 2
C        1.6418631753    0.3549639225   -0.2201453280
C        1.1501458164   -0.9683493348   -0.1950754621
C       -0.2053729102   -1.1896057620   -0.2661849851
C       -1.1649306574   -0.0607535044   -0.2849640780
C       -0.4710200855    1.2382423959   -0.2493746477
N        0.8462160514    1.4293999360   -0.2052505822
H        2.7118184489    0.5472538718   -0.2348811098
H        1.8443437031   -1.8022409101   -0.1544614384
H       -0.6084413875   -2.1970190268   -0.2576315007
H       -2.0206126099   -0.1627740449   -0.9574407826
H       -1.0881245363    2.1333574678   -0.1973584732
C       -1.5647145067   -0.1057798159    1.2328902203
H       -1.1701441565    0.7509421930    1.8186352858
$end

$rem
method                b3lyp
basis                 6-31+g(d,p)
unrestricted          true
symmetry              off
sym_ignore            true
incdft                false
incfock               0
scf_convergence       8
thresh                14
jobtype               ts
scf_guess             read
scf_algorithm         diis_gdm
max_scf_cycles        300
geom_opt_max_cycles   500
geom_opt_dmax         100
geom_opt_tol_gradient 10
geom_opt_hessian      read
$end

--------------------------------------------------------------

    4    -286.8127810704      2.92E-09 Convergence criterion met
 Total energy in the final basis set = -286.81278107
   25    -286.8139957817      1.09E-09 Convergence criterion met
 Total energy in the final basis set = -286.81399578
   23    -286.8140203584      4.15E-09 Convergence criterion met
 Total energy in the final basis set = -286.81402036
   22    -286.8142727864      5.59E-09 Convergence criterion met
 Total energy in the final basis set = -286.81427279
   21    -286.8146596600      4.68E-09 Convergence criterion met
 Total energy in the final basis set = -286.81465966
   21    -286.8151393811      8.55E-09 Convergence criterion met
 Total energy in the final basis set = -286.81513938
   21    -286.8156210493      4.06E-09 Convergence criterion met
 Total energy in the final basis set = -286.81562105
   21    -286.8160509156      7.01E-09 Convergence criterion met
   18    -286.8185281533      9.29E-09 Convergence criterion met
 Total energy in the final basis set = -286.81852815
   17    -286.8185282874      7.42E-09 Convergence criterion met
 Total energy in the final basis set = -286.81852829
   20    -286.8185024137      6.03E-09 Convergence criterion met
 Total energy in the final basis set = -286.81850241
   20    -286.8185281806      5.70E-09 Convergence criterion met
 Total energy in the final basis set = -286.81852818
   16    -286.8185282054      5.58E-09 Convergence criterion met
 Total energy in the final basis set = -286.81852821
   14    -286.8185282069      8.04E-09 Convergence criterion met
 Total energy in the final basis set = -286.81852821

             Standard Nuclear Orientation (Angstroms)
    I     Atom           X                Y                Z
 ----------------------------------------------------------------
    1      C       1.6445617029     0.3786580278    -0.2370173153
    2      C       1.1281684884    -0.9184022163    -0.1225559896
    3      C      -0.2413548069    -1.1284696510    -0.1954104097
    4      C      -1.1790139847     0.0212084784    -0.2578746698
    5      C      -0.4448083579     1.3265912322    -0.4128531363
    6      N       0.8529826514     1.4837966561    -0.3755251412
    7      H       2.7146509195     0.5612888433    -0.2231432765
    8      H       1.8062071337    -1.7602026393    -0.0152822002
    9      H      -0.6590923163    -2.1288577673    -0.1478199627
   10      H      -2.0187033624    -0.0863661534    -0.9507864344
   11      H      -1.0522621061     2.2274300884    -0.4890760491
   12      C      -1.6599414823     0.0114337368     1.1959252804
   13      H      -0.9903681340    -0.0204712476     2.0601764226
 ----------------------------------------------------------------

   14    -286.8185282075      8.11E-09 Convergence criterion met
 Total energy in the final basis set = -286.81852821
 Final energy is   -286.818528207524
 **  OPTIMIZATION CONVERGED  **

                    Orbital Energies (a.u.)
 --------------------------------------------------------------

 Alpha MOs
 -- Occupied --
-14.354 -10.249 -10.239 -10.234 -10.233 -10.229 -10.217  -0.957
 -0.837  -0.787  -0.678  -0.636  -0.615  -0.535  -0.499  -0.491
 -0.445  -0.432  -0.415  -0.386  -0.375  -0.306  -0.281  -0.253
 -0.216

 Beta MOs
 -- Occupied --
-14.350 -10.252 -10.240 -10.238 -10.233 -10.214 -10.212  -0.956
 -0.832  -0.788  -0.674  -0.639  -0.581  -0.537  -0.499  -0.490
 -0.442  -0.428  -0.417  -0.383  -0.377  -0.309  -0.269  -0.203

          Ground-State Mulliken Net Atomic Charges

     Atom                 Charge (a.u.)    Spin (a.u.)
  --------------------------------------------------------
      1 C                    -0.242503      -0.459148
      2 C                     0.141411       0.300042
      3 C                    -0.388063      -0.385189
      4 C                     0.254448      -0.048253
      5 C                    -0.191872      -0.313664
      6 N                    -0.148333       0.207339
      7 H                     0.134027       0.023349
      8 H                     0.134341      -0.009993
      9 H                     0.147982       0.017970
     10 H                     0.154777      -0.017668
     11 H                     0.143437       0.017842
     12 C                    -0.284983       1.700143
     13 H                     0.145330      -0.032768
  --------------------------------------------------------
  Sum of atomic charges =     0.000000

                    Cartesian Multipole Moments
 -----------------------------------------------------------------
    Charge (ESU x 10^10)
                 0.0000
    Dipole Moment (Debye)
         X       0.2259      Y      -1.9025      Z      -0.4886
       Tot       1.9772
    Quadrupole Moments (Debye-Ang)
        XX     -42.3569     XY      -3.4151     YY     -43.5945
        XZ       3.6622     YZ       0.3838     ZZ     -43.6291

 Total job time:  2338.57s(wall), 4236.97s(cpu)
        *  Thank you very much for using Q-Chem.  Have a nice day.  *
