 Q-Chem 5.0, Q-Chem, Inc., Pleasanton, CA (2017)
 Q-Chem 5.0.2 for Intel X86 EM64T Linux

User input:
--------------------------------------------------------------
$molecule
0 2
C        1.5760285402    0.4905829746   -0.1802268852
C        0.8451033833   -0.7987643908   -0.0034579785
C       -0.4633490545   -0.6151088003   -0.7008306503
C       -0.9622863165    0.6742249893    0.9121766739
C       -0.5545041403    0.9502718022   -0.5408383873
N        0.8335452356    1.4756464003   -0.5243753546
H        2.6434858991    0.6148788365   -0.0009238289
H        1.3463286226   -1.7619347469    0.0059605398
H       -0.9182237166   -1.2629738316   -1.4445599550
H       -1.9031227831    0.9730394210    1.3603932228
H       -1.2164879894    1.5365400964   -1.1779315234
C       -0.4782102071   -0.7177034652    0.8322060845
H       -0.7483074734   -1.5586992854    1.4624080422
$end

$rem
method                b3lyp
basis                 6-31g(d)
unrestricted          true
symmetry              off
sym_ignore            true
incdft                false
incfock               0
scf_convergence       8
thresh                14
jobtype               opt
scf_guess             read
scf_algorithm         diis
max_scf_cycles        100
geom_opt_tol_gradient 600
geom_opt_tol_displacement 2400
geom_opt_tol_energy   200
geom_opt_max_cycles   100
$end

--------------------------------------------------------------

    2    -286.8364672944      1.67E-09 Convergence criterion met
 Total energy in the final basis set = -286.83646729

             Standard Nuclear Orientation (Angstroms)
    I     Atom           X                Y                Z
 ----------------------------------------------------------------
    1      C       1.5759281419     0.4904916873    -0.1800422769
    2      C       0.8446352554    -0.7985765505    -0.0035024088
    3      C      -0.4640104437    -0.6148455679    -0.7002981851
    4      C      -0.9633001871     0.6736079067     0.9110992989
    5      C      -0.5537579988     0.9503171376    -0.5411093371
    6      N       0.8342131323     1.4761077432    -0.5233647562
    7      H       2.6434626137     0.6144922039    -0.0011889360
    8      H       1.3466246594    -1.7613281017     0.0047623881
    9      H      -0.9194682170    -1.2632795339    -1.4432166690
   10      H      -1.9040194829     0.9721742851     1.3597022229
   11      H      -1.2151631469     1.5369390516    -1.1783638369
   12      C      -0.4780657553    -0.7174588041     0.8325436955
   13      H      -0.7470785710    -1.5586414572     1.4629788006
 ----------------------------------------------------------------

   10    -286.8364689825      3.65E-09 Convergence criterion met
 Total energy in the final basis set = -286.83646898
 Final energy is   -286.836468982481
 **  OPTIMIZATION CONVERGED  **

                    Orbital Energies (a.u.)
 --------------------------------------------------------------

 Alpha MOs
 -- Occupied --
-14.317 -10.220 -10.220 -10.215 -10.212 -10.211 -10.194  -0.964
 -0.858  -0.746  -0.657  -0.608  -0.575  -0.540  -0.512  -0.463
 -0.429  -0.412  -0.388  -0.366  -0.329  -0.315  -0.266  -0.256
 -0.174

 Beta MOs
 -- Occupied --
-14.317 -10.221 -10.220 -10.216 -10.211 -10.210 -10.181  -0.961
 -0.854  -0.737  -0.646  -0.602  -0.571  -0.538  -0.501  -0.461
 -0.425  -0.406  -0.384  -0.362  -0.317  -0.303  -0.263  -0.254

          Ground-State Mulliken Net Atomic Charges

     Atom                 Charge (a.u.)    Spin (a.u.)
  --------------------------------------------------------
      1 C                     0.096156       0.006706
      2 C                    -0.192146       0.036581
      3 C                    -0.107004       0.107752
      4 C                    -0.071490       0.952267
      5 C                    -0.099453      -0.043327
      6 N                    -0.337344       0.012598
      7 H                     0.143834       0.003970
      8 H                     0.148638       0.001431
      9 H                     0.149515       0.008580
     10 H                     0.139496      -0.039472
     11 H                     0.141854       0.005405
     12 C                    -0.161653      -0.052843
     13 H                     0.149598       0.000353
  --------------------------------------------------------
  Sum of atomic charges =     0.000000

                    Cartesian Multipole Moments
 -----------------------------------------------------------------
    Charge (ESU x 10^10)
                 0.0000
    Dipole Moment (Debye)
         X      -0.7985      Y      -2.7199      Z       0.0596
       Tot       2.8353
    Quadrupole Moments (Debye-Ang)
        XX     -37.1036     XY      -2.9792     YY     -43.2105
        XZ       0.8769     YZ       0.3751     ZZ     -40.9578

 Total job time:  15.97s(wall), 48.28s(cpu)
        *  Thank you very much for using Q-Chem.  Have a nice day.  *
