 Q-Chem 5.0, Q-Chem, Inc., Pleasanton, CA (2017)
 Q-Chem 5.0.2 for Intel X86 EM64T Linux

User input:
--------------------------------------------------------------
$molecule
0 2
C        1.9060500046    0.3097202117   -0.4823097842
C        1.3505745745   -0.9696948104   -0.3441303683
C        0.0139369398   -1.0885533981   -0.0043043231
C       -0.7663525087    0.0848176594    0.1959094288
C       -0.0774162012    1.3251578443    0.0227024597
N        1.2029906089    1.4427300352   -0.3013406052
H        2.9539218484    0.4337908923   -0.7476162453
H        1.9673264112   -1.8500289230   -0.5017877668
H       -0.4479806321   -2.0659613478    0.1125956274
H       -2.6519579055   -0.8904458554    0.6716292342
H       -0.6285534463    2.2555383669    0.1626147648
C       -2.1279651279    0.0491834846    0.5375697469
H       -2.6945745656    0.9637458404    0.6784678311
$end

$rem
method                b3lyp
basis                 6-31g(d)
unrestricted          true
symmetry              off
sym_ignore            true
incdft                false
incfock               0
scf_convergence       8
thresh                14
jobtype               opt
scf_guess             read
scf_algorithm         diis
max_scf_cycles        100
geom_opt_tol_gradient 600
geom_opt_tol_displacement 2400
geom_opt_tol_energy   200
geom_opt_max_cycles   100
$end

--------------------------------------------------------------

    2    -286.9514982042      1.10E-09 Convergence criterion met
 Total energy in the final basis set = -286.95149820

             Standard Nuclear Orientation (Angstroms)
    I     Atom           X                Y                Z
 ----------------------------------------------------------------
    1      C       1.9062053474     0.3097225321    -0.4819799547
    2      C       1.3508721028    -0.9697713393    -0.3433850505
    3      C       0.0138377931    -1.0884256395    -0.0051958801
    4      C      -0.7666194948     0.0850703825     0.1937352735
    5      C      -0.0780123118     1.3255480864     0.0210756065
    6      N       1.2026360960     1.4427318665    -0.3024198201
    7      H       2.9543014473     0.4336779779    -0.7466512807
    8      H       1.9674950115    -1.8503330854    -0.5003904966
    9      H      -0.4487204853    -2.0655446050     0.1116308703
   10      H      -2.6522410856    -0.8918286116     0.6712894339
   11      H      -0.6288740261     2.2558722233     0.1629053461
   12      C      -2.1278656007     0.0489853195     0.5383421008
   13      H      -2.6930147936     0.9642948926     0.6810438516
 ----------------------------------------------------------------

   11    -286.9515007922      4.56E-09 Convergence criterion met
 Total energy in the final basis set = -286.95150079
 Final energy is   -286.951500792197
 **  OPTIMIZATION CONVERGED  **

                    Orbital Energies (a.u.)
 --------------------------------------------------------------

 Alpha MOs
 -- Occupied --
-14.330 -10.226 -10.224 -10.210 -10.208 -10.203 -10.200  -0.940
 -0.818  -0.778  -0.695  -0.631  -0.601  -0.521  -0.493  -0.468
 -0.425  -0.415  -0.403  -0.401  -0.367  -0.315  -0.283  -0.252
 -0.193

 Beta MOs
 -- Occupied --
-14.332 -10.223 -10.220 -10.211 -10.206 -10.201 -10.193  -0.939
 -0.813  -0.772  -0.677  -0.627  -0.594  -0.517  -0.491  -0.465
 -0.422  -0.410  -0.399  -0.394  -0.365  -0.295  -0.270  -0.254

          Ground-State Mulliken Net Atomic Charges

     Atom                 Charge (a.u.)    Spin (a.u.)
  --------------------------------------------------------
      1 C                     0.030703       0.270121
      2 C                    -0.134568      -0.134781
      3 C                    -0.156504       0.247268
      4 C                     0.208962      -0.200716
      5 C                    -0.008631       0.242266
      6 N                    -0.402154      -0.110388
      7 H                     0.143460      -0.014127
      8 H                     0.138660       0.005317
      9 H                     0.139928      -0.011476
     10 H                     0.152011      -0.038398
     11 H                     0.140213      -0.012062
     12 C                    -0.407313       0.795198
     13 H                     0.155232      -0.038222
  --------------------------------------------------------
  Sum of atomic charges =    -0.000000

                    Cartesian Multipole Moments
 -----------------------------------------------------------------
    Charge (ESU x 10^10)
                -0.0000
    Dipole Moment (Debye)
         X      -0.9515      Y      -1.8862      Z       0.2391
       Tot       2.1261
    Quadrupole Moments (Debye-Ang)
        XX     -37.3547     XY      -3.8699     YY     -40.4777
        XZ      -1.5187     YZ       0.9797     ZZ     -42.9498

 Total job time:  38.76s(wall), 52.01s(cpu)
        *  Thank you very much for using Q-Chem.  Have a nice day.  *
