 Q-Chem 5.0, Q-Chem, Inc., Pleasanton, CA (2017)
 Q-Chem 5.0.2 for Intel X86 EM64T Linux

User input:
--------------------------------------------------------------
$molecule
0 2
C        1.3199927695    0.0323587386    0.3281901696
C        1.0329883246   -1.3109846868    0.8737598926
C        1.9549551306   -2.0601167609    1.4488672980
C       -1.7920864061    1.7600014250   -0.5540667051
C       -0.8473716722    0.5861190526   -0.4691745020
N        0.5371826309    0.8630526150   -0.2531778513
H        2.3604211170    0.3476537233    0.4419025423
H        0.0132172740   -1.6993902167    0.7914556442
H        2.0130048425   -3.0381901388    1.9094705924
H       -2.2838619616    2.5321308192    0.0185564313
H       -1.2366973216   -0.3671524337   -0.0953815514
C       -1.5028046113    1.1993653051   -1.6817275849
H       -1.5689401162    1.1551525582   -2.7586743757
$end

$rem
method                b3lyp
basis                 6-31g(d)
unrestricted          true
symmetry              off
sym_ignore            true
incdft                false
incfock               0
scf_convergence       8
thresh                14
jobtype               opt
scf_guess             read
scf_algorithm         diis
max_scf_cycles        100
geom_opt_tol_gradient 600
geom_opt_tol_displacement 2400
geom_opt_tol_energy   200
geom_opt_max_cycles   100
$end

--------------------------------------------------------------

    2    -286.7710800071      1.10E-09 Convergence criterion met
 Total energy in the final basis set = -286.77108001
   12    -286.7710837686      7.31E-09 Convergence criterion met
 Total energy in the final basis set = -286.77108377

             Standard Nuclear Orientation (Angstroms)
    I     Atom           X                Y                Z
 ----------------------------------------------------------------
    1      C       1.3226060970     0.0301583184     0.3222678266
    2      C       1.0326435348    -1.3108371812     0.8724986329
    3      C       1.9509612267    -2.0555288657     1.4591564329
    4      C      -1.7908601742     1.7555181994    -0.5478377676
    5      C      -0.8437092676     0.5825094326    -0.4782929220
    6      N       0.5412164813     0.8602502885    -0.2617390429
    7      H       2.3628696769     0.3448928860     0.4380625218
    8      H       0.0133311209    -1.6994964361     0.7866123271
    9      H       2.0064723409    -3.0301057684     1.9274522814
   10      H      -2.2804894166     2.5220531897     0.0340418055
   11      H      -1.2286522872    -0.3749706973    -0.1106839266
   12      C      -1.5070339033     1.2055229980    -1.6823822103
   13      H      -1.5793554292     1.1700336364    -2.7591559587
 ----------------------------------------------------------------

   11    -286.7710852490      4.05E-09 Convergence criterion met
 Total energy in the final basis set = -286.77108525
 Final energy is   -286.771085248961
 **  OPTIMIZATION CONVERGED  **

                    Orbital Energies (a.u.)
 --------------------------------------------------------------

 Alpha MOs
 -- Occupied --
-14.319 -10.231 -10.225 -10.222 -10.208 -10.207 -10.204  -0.924
 -0.858  -0.782  -0.650  -0.596  -0.571  -0.539  -0.503  -0.497
 -0.455  -0.418  -0.373  -0.352  -0.308  -0.276  -0.260  -0.243
 -0.228

 Beta MOs
 -- Occupied --
-14.320 -10.230 -10.224 -10.208 -10.207 -10.207 -10.206  -0.925
 -0.858  -0.768  -0.643  -0.582  -0.571  -0.534  -0.499  -0.490
 -0.447  -0.410  -0.375  -0.351  -0.305  -0.276  -0.240  -0.238

          Ground-State Mulliken Net Atomic Charges

     Atom                 Charge (a.u.)    Spin (a.u.)
  --------------------------------------------------------
      1 C                     0.040792       0.060670
      2 C                    -0.129028      -0.167912
      3 C                    -0.198257       1.067070
      4 C                    -0.117378      -0.002387
      5 C                    -0.014466       0.006013
      6 N                    -0.361422      -0.038993
      7 H                     0.139851       0.006299
      8 H                     0.158196       0.071628
      9 H                     0.171140       0.002603
     10 H                     0.152631      -0.000604
     11 H                     0.123151      -0.001296
     12 C                    -0.117820      -0.002494
     13 H                     0.152610      -0.000597
  --------------------------------------------------------
  Sum of atomic charges =     0.000000

                    Cartesian Multipole Moments
 -----------------------------------------------------------------
    Charge (ESU x 10^10)
                 0.0000
    Dipole Moment (Debye)
         X      -1.3726      Y      -1.3593      Z       0.2777
       Tot       1.9516
    Quadrupole Moments (Debye-Ang)
        XX     -39.6004     XY      -3.5471     YY     -37.7050
        XZ       1.6901     YZ      -1.7700     ZZ     -38.4119

 Total job time:  28.83s(wall), 78.72s(cpu)
        *  Thank you very much for using Q-Chem.  Have a nice day.  *
