 Q-Chem 5.0, Q-Chem, Inc., Pleasanton, CA (2017)
 Q-Chem 5.0.2 for Intel X86 EM64T Linux

User input:
--------------------------------------------------------------
$molecule
0 2
C        0.6822899434    0.0415096546    0.2203829730
C        0.9717214916   -1.2328741331   -0.5520894346
C        0.2779670773   -2.3441806303   -0.4771905431
C       -1.2956960677    1.1615508920    0.5651641003
C       -0.4600398951    1.8024582821   -0.4603410045
N        0.6565619423    1.2002719195   -0.6922197799
H        1.5248037587    0.2156299495    0.9124935218
H        1.8444104259   -1.1636926530   -1.2119922046
H        0.3185699088   -3.3329450244   -0.9163683996
H       -2.2657901921    1.5115546485    0.8994236281
H       -0.7264711380    2.7111917997   -0.9990922159
C       -0.6164580303    0.0781587458    0.9823380720
H       -0.9118692246   -0.6486334510    1.7294912871
$end

$rem
method                b3lyp
basis                 6-31g(d)
unrestricted          true
symmetry              off
sym_ignore            true
incdft                false
incfock               0
scf_convergence       8
thresh                14
jobtype               opt
scf_guess             read
scf_algorithm         diis
max_scf_cycles        100
geom_opt_tol_gradient 600
geom_opt_tol_displacement 2400
geom_opt_tol_energy   200
geom_opt_max_cycles   100
$end

--------------------------------------------------------------

    2    -286.8505804601      3.35E-09 Convergence criterion met
 Total energy in the final basis set = -286.85058046

             Standard Nuclear Orientation (Angstroms)
    I     Atom           X                Y                Z
 ----------------------------------------------------------------
    1      C       0.6826807012     0.0418277245     0.2206489753
    2      C       0.9735968649    -1.2332014573    -0.5495054758
    3      C       0.2774487490    -2.3429559632    -0.4769439259
    4      C      -1.2946083884     1.1623980905     0.5666474440
    5      C      -0.4598378000     1.8015490688    -0.4610014290
    6      N       0.6571942909     1.1995685166    -0.6926888100
    7      H       1.5242619631     0.2168016670     0.9136690406
    8      H       1.8448207373    -1.1629809750    -1.2112151479
    9      H       0.3156491978    -3.3307550601    -0.9187001629
   10      H      -2.2652282145     1.5116472971     0.9005495032
   11      H      -0.7282638031     2.7084914752    -1.0017521793
   12      C      -0.6160520472     0.0779527610     0.9824034337
   13      H      -0.9116622507    -0.6503431454     1.7278887339
 ----------------------------------------------------------------

   11    -286.8505823726      4.22E-09 Convergence criterion met
 Total energy in the final basis set = -286.85058237
 Final energy is   -286.850582372605
 **  OPTIMIZATION CONVERGED  **

                    Orbital Energies (a.u.)
 --------------------------------------------------------------

 Alpha MOs
 -- Occupied --
-14.321 -10.227 -10.224 -10.209 -10.202 -10.201 -10.196  -0.943
 -0.790  -0.765  -0.704  -0.595  -0.556  -0.537  -0.507  -0.469
 -0.446  -0.405  -0.398  -0.370  -0.326  -0.274  -0.265  -0.254
 -0.234

 Beta MOs
 -- Occupied --
-14.321 -10.226 -10.224 -10.204 -10.201 -10.196 -10.193  -0.943
 -0.782  -0.764  -0.692  -0.587  -0.555  -0.529  -0.504  -0.457
 -0.441  -0.403  -0.397  -0.365  -0.324  -0.268  -0.261  -0.252

          Ground-State Mulliken Net Atomic Charges

     Atom                 Charge (a.u.)    Spin (a.u.)
  --------------------------------------------------------
      1 C                    -0.069389       0.042938
      2 C                    -0.103290      -0.167472
      3 C                    -0.198505       1.040337
      4 C                    -0.142436       0.000307
      5 C                     0.055861       0.004806
      6 N                    -0.377520      -0.003538
      7 H                     0.180976      -0.004345
      8 H                     0.164001       0.078655
      9 H                     0.163960       0.004911
     10 H                     0.140211       0.000137
     11 H                     0.143471      -0.000140
     12 C                    -0.110580       0.002921
     13 H                     0.153240       0.000483
  --------------------------------------------------------
  Sum of atomic charges =    -0.000000

                    Cartesian Multipole Moments
 -----------------------------------------------------------------
    Charge (ESU x 10^10)
                 0.0000
    Dipole Moment (Debye)
         X      -0.8616      Y      -0.5771      Z       1.1086
       Tot       1.5181
    Quadrupole Moments (Debye-Ang)
        XX     -39.2357     XY      -4.2371     YY     -37.4293
        XZ       0.0962     YZ       1.7297     ZZ     -41.0588

 Total job time:  14.50s(wall), 48.58s(cpu)
        *  Thank you very much for using Q-Chem.  Have a nice day.  *
