 Q-Chem 5.0, Q-Chem, Inc., Pleasanton, CA (2017)
 Q-Chem 5.0.2 for Intel X86 EM64T Linux

User input:
--------------------------------------------------------------
$molecule
0 2
C        1.8863220678    0.2843706615   -0.1923655552
C        1.0458641621   -0.7650206032   -0.1374119212
C       -0.3064634228   -0.2812678580   -0.5910900815
C       -1.4036539875   -0.3365953854    0.4640002645
C        0.0307800184    1.1655405975   -0.9117045857
N        1.2572079731    1.4759083343   -0.6701705105
H        2.9319715965    0.3249624450    0.0857747999
H        1.2655967278   -1.7761119428    0.1795702014
H       -0.6484748320   -0.8014461881   -1.5003916039
H       -2.4185554305   -0.1320691941    0.1011582028
H       -0.6909554356    1.8945795223   -1.2715652525
C       -1.1978304807   -0.5316317515    1.7477587054
H       -1.7745841646   -0.5524206836    2.6616697713
$end

$rem
method                b3lyp
basis                 6-31+g(d,p)
unrestricted          true
symmetry              off
sym_ignore            true
incdft                false
incfock               0
scf_convergence       8
thresh                14
jobtype               opt
scf_guess             read
scf_algorithm         diis
max_scf_cycles        100
geom_opt_max_cycles   300
$end

--------------------------------------------------------------

   20    -286.8677825660      3.81E-09 Convergence criterion met
 Total energy in the final basis set = -286.86778257
   14    -286.8684544513      6.27E-09 Convergence criterion met
 Total energy in the final basis set = -286.86845445
   14    -286.8688631971      4.30E-09 Convergence criterion met
 Total energy in the final basis set = -286.86886320
   13    -286.8689509028      4.93E-09 Convergence criterion met
 Total energy in the final basis set = -286.86895090
   12    -286.8689778770      5.24E-09 Convergence criterion met
 Total energy in the final basis set = -286.86897788
   11    -286.8689804379      6.24E-09 Convergence criterion met
 Total energy in the final basis set = -286.86898044

             Standard Nuclear Orientation (Angstroms)
    I     Atom           X                Y                Z
 ----------------------------------------------------------------
    1      C       1.9342963494     0.2963284430    -0.2892703797
    2      C       1.0650958630    -0.7031941082    -0.0491827627
    3      C      -0.2932269335    -0.2295547086    -0.4927145751
    4      C      -1.4209183525    -0.2864677165     0.5215476432
    5      C       0.0555818053     1.1765196671    -0.9478207063
    6      N       1.3090753086     1.4555827469    -0.8428744278
    7      H       3.0027873210     0.3168720016    -0.1143570290
    8      H       1.2751887673    -1.6788478417     0.3683706479
    9      H      -0.6117390658    -0.7944692003    -1.3877250679
   10      H      -2.3938401606     0.0688465633     0.1578038503
   11      H      -0.6638243646     1.8915344418    -1.3395299213
   12      C      -1.3173156310    -0.7112270288     1.7612156670
   13      H      -1.9639361146    -0.8331253058     2.6197694964
 ----------------------------------------------------------------

    9    -286.8689808801      7.35E-09 Convergence criterion met
 Total energy in the final basis set = -286.86898088
 Final energy is   -286.868980880096
 **  OPTIMIZATION CONVERGED  **

                    Orbital Energies (a.u.)
 --------------------------------------------------------------

 Alpha MOs
 -- Occupied --
-14.344 -10.239 -10.228 -10.227 -10.224 -10.221 -10.202  -0.961
 -0.821  -0.757  -0.725  -0.609  -0.565  -0.554  -0.512  -0.489
 -0.454  -0.425  -0.404  -0.380  -0.355  -0.303  -0.270  -0.256
 -0.245

 Beta MOs
 -- Occupied --
-14.344 -10.239 -10.227 -10.225 -10.221 -10.212 -10.202  -0.961
 -0.815  -0.752  -0.715  -0.601  -0.564  -0.545  -0.509  -0.478
 -0.448  -0.423  -0.403  -0.375  -0.354  -0.298  -0.266  -0.250

          Ground-State Mulliken Net Atomic Charges

     Atom                 Charge (a.u.)    Spin (a.u.)
  --------------------------------------------------------
      1 C                    -0.152974      -0.026374
      2 C                    -0.052579      -0.001325
      3 C                    -0.082827       0.063809
      4 C                     0.012014      -0.325842
      5 C                    -0.119460       0.014099
      6 N                    -0.193936       0.006059
      7 H                     0.132577       0.000036
      8 H                     0.140965       0.000173
      9 H                     0.182805      -0.005255
     10 H                     0.141621       0.078138
     11 H                     0.135372      -0.000048
     12 C                    -0.298718       1.188992
     13 H                     0.155139       0.007537
  --------------------------------------------------------
  Sum of atomic charges =    -0.000000

                    Cartesian Multipole Moments
 -----------------------------------------------------------------
    Charge (ESU x 10^10)
                -0.0000
    Dipole Moment (Debye)
         X      -2.0834      Y      -1.6577      Z       0.1313
       Tot       2.6657
    Quadrupole Moments (Debye-Ang)
        XX     -38.7092     XY      -4.3747     YY     -46.0155
        XZ       1.5193     YZ       0.6231     ZZ     -41.6698

 Total job time:  204.15s(wall), 584.27s(cpu)
        *  Thank you very much for using Q-Chem.  Have a nice day.  *
