 Q-Chem 5.0, Q-Chem, Inc., Pleasanton, CA (2017)
 Q-Chem 5.0.2 for Intel X86 EM64T Linux

User input:
--------------------------------------------------------------
$molecule
0 2
C        1.9457968371    0.2041265136   -0.3030232012
C        1.0362185786   -0.7464297007   -0.0179773722
C       -0.3026141770   -0.2357133352   -0.4788990881
C       -1.4271254472   -0.1994111894    0.5398078775
C        0.1035350782    1.1323906098   -0.9974880907
N        1.3679510211    1.3628225911   -0.9070518178
H        3.0147282808    0.1876492081   -0.1304755435
H        1.2064556386   -1.7103218775    0.4428135532
H       -0.6490901255   -0.8259616591   -1.3468551349
H       -2.3859234800    0.1793365003    0.1623181052
H       -0.5865031901    1.8590023861   -1.4194853126
C       -1.3372915821   -0.5746849063    1.7963793936
H       -1.9861374326   -0.6328051409    2.6599366315
$end

$rem
method                b3lyp
basis                 6-31+g(d,p)
unrestricted          true
symmetry              off
sym_ignore            true
incdft                false
incfock               0
scf_convergence       6
thresh                14
jobtype               sp
scf_guess             read
scf_algorithm         diis
max_scf_cycles        100
stability_analysis    true
max_cis_cycles        100
cis_n_roots           4
$end

--------------------------------------------------------------

             Standard Nuclear Orientation (Angstroms)
    I     Atom           X                Y                Z
 ----------------------------------------------------------------
    1      C       1.9457968371     0.2041265136    -0.3030232012
    2      C       1.0362185786    -0.7464297007    -0.0179773722
    3      C      -0.3026141770    -0.2357133352    -0.4788990881
    4      C      -1.4271254472    -0.1994111894     0.5398078775
    5      C       0.1035350782     1.1323906098    -0.9974880907
    6      N       1.3679510211     1.3628225911    -0.9070518178
    7      H       3.0147282808     0.1876492081    -0.1304755435
    8      H       1.2064556386    -1.7103218775     0.4428135532
    9      H      -0.6490901255    -0.8259616591    -1.3468551349
   10      H      -2.3859234800     0.1793365003     0.1623181052
   11      H      -0.5865031901     1.8590023861    -1.4194853126
   12      C      -1.3372915821    -0.5746849063     1.7963793936
   13      H      -1.9861374326    -0.6328051409     2.6599366315
 ----------------------------------------------------------------

    2    -286.8689992889      9.73E-10 Convergence criterion met
 Total energy in the final basis set = -286.86899929

         TDDFT/TDA Excitation Energies
 ---------------------------------------------------

 Excited state   1: excitation energy (eV) =    2.8938
 Total energy for state  1:                  -286.76265402 au
    <S**2>     :  0.7703
    Trans. Mom.:  0.0639 X  -0.0718 Y  -0.1079 Z
    Strength   :     0.0014807711
    D( 22) --> S(  1) amplitude = -0.4395 beta
    D( 23) --> S(  1) amplitude =  0.6835 beta
    D( 24) --> S(  1) amplitude = -0.5567 beta

 Excited state   2: excitation energy (eV) =    3.1734
 Total energy for state  2:                  -286.75238028 au
    <S**2>     :  2.7245
    Trans. Mom.: -0.0027 X   0.0006 Y  -0.0014 Z
    Strength   :     0.0000007560
    D( 24) --> V(  1) amplitude = -0.4308 alpha
    S(  1) --> V(  1) amplitude =  0.5399 alpha
    D( 24) --> V(  1) amplitude =  0.6670 beta

 Excited state   3: excitation energy (eV) =    3.4571
 Total energy for state  3:                  -286.74195348 au
    <S**2>     :  0.8066
    Trans. Mom.: -0.1811 X  -0.0767 Y   0.1513 Z
    Strength   :     0.0052138840
    D( 22) --> S(  1) amplitude = -0.1808 beta
    D( 23) --> S(  1) amplitude =  0.5359 beta
    D( 24) --> S(  1) amplitude =  0.8192 beta

 Excited state   4: excitation energy (eV) =    4.0748
 Total energy for state  4:                  -286.71925309 au
    <S**2>     :  2.6015
    Trans. Mom.: -0.0065 X   0.0103 Y  -0.0057 Z
    Strength   :     0.0000180553
    D( 22) --> V(  1) amplitude =  0.1661 alpha
    D( 23) --> V(  1) amplitude =  0.5795 alpha
    D( 24) --> V(  1) amplitude =  0.2143 alpha
    S(  1) --> V(  1) amplitude =  0.2483 alpha
    D( 22) --> V(  1) amplitude = -0.2230 beta
    D( 23) --> V(  1) amplitude = -0.6247 beta

 ---------------------------------------------------

                    Orbital Energies (a.u.)
 --------------------------------------------------------------

 Alpha MOs
 -- Occupied --
-14.344 -10.239 -10.228 -10.227 -10.224 -10.221 -10.202  -0.961
 -0.821  -0.757  -0.725  -0.609  -0.565  -0.554  -0.512  -0.489
 -0.454  -0.425  -0.404  -0.380  -0.355  -0.303  -0.270  -0.256
 -0.245

 Beta MOs
 -- Occupied --
-14.344 -10.239 -10.227 -10.226 -10.221 -10.212 -10.202  -0.961
 -0.815  -0.752  -0.715  -0.601  -0.564  -0.545  -0.509  -0.478
 -0.448  -0.423  -0.403  -0.375  -0.354  -0.298  -0.266  -0.250

          Ground-State Mulliken Net Atomic Charges

     Atom                 Charge (a.u.)    Spin (a.u.)
  --------------------------------------------------------
      1 C                    -0.153517      -0.026409
      2 C                    -0.052161      -0.001459
      3 C                    -0.083492       0.064131
      4 C                     0.011585      -0.326538
      5 C                    -0.118636       0.014098
      6 N                    -0.193827       0.006085
      7 H                     0.132570       0.000040
      8 H                     0.140969       0.000163
      9 H                     0.182831      -0.005268
     10 H                     0.141639       0.078177
     11 H                     0.135344      -0.000047
     12 C                    -0.298455       1.189464
     13 H                     0.155149       0.007562
  --------------------------------------------------------
  Sum of atomic charges =    -0.000000

                    Cartesian Multipole Moments
 -----------------------------------------------------------------
    Charge (ESU x 10^10)
                -0.0000
    Dipole Moment (Debye)
         X      -2.1524      Y      -1.5621      Z       0.2103
       Tot       2.6678
    Quadrupole Moments (Debye-Ang)
        XX     -39.0843     XY      -4.5907     YY     -45.5851
        XZ       1.7393     YZ       0.7394     ZZ     -41.7443

 Total job time:  209.48s(wall), 192.11s(cpu)
        *  Thank you very much for using Q-Chem.  Have a nice day.  *
