 Q-Chem 5.0, Q-Chem, Inc., Pleasanton, CA (2017)
 Q-Chem 5.0.2 for Intel X86 EM64T Linux

User input:
--------------------------------------------------------------
$molecule
0 2
C        1.8310512122    0.2079965210    0.0053954782
C        1.3974190607   -0.8749972867   -0.8913378217
C        0.0755797579   -0.6988485288   -1.0821545156
C       -1.4913412198    0.3023379258    0.6480828423
C       -0.3307138246    0.5318956033   -0.3020080922
N        0.8842871079    1.0078858339    0.3662000963
H        2.8511085508    0.3552371932    0.3547462698
H        2.0328260935   -1.6508881862   -1.3021425853
H       -0.5976517825   -1.3020901514   -1.6798211330
H       -2.4202771356   -0.0242939574    0.1638058102
H       -0.6303253837    1.3218853104   -1.0130829753
C       -1.4568779555    0.4608557232    1.9517631803
H       -2.1450844810    0.3630239999    2.7805534454
$end

$rem
method                b3lyp
basis                 6-31+g(d,p)
unrestricted          true
symmetry              off
sym_ignore            true
incdft                false
incfock               0
scf_convergence       6
thresh                14
jobtype               sp
scf_guess             read
scf_algorithm         diis
max_scf_cycles        100
stability_analysis    true
max_cis_cycles        100
cis_n_roots           4
$end

--------------------------------------------------------------

             Standard Nuclear Orientation (Angstroms)
    I     Atom           X                Y                Z
 ----------------------------------------------------------------
    1      C       1.8310512122     0.2079965210     0.0053954782
    2      C       1.3974190607    -0.8749972867    -0.8913378217
    3      C       0.0755797579    -0.6988485288    -1.0821545156
    4      C      -1.4913412198     0.3023379258     0.6480828423
    5      C      -0.3307138246     0.5318956033    -0.3020080922
    6      N       0.8842871079     1.0078858339     0.3662000963
    7      H       2.8511085508     0.3552371932     0.3547462698
    8      H       2.0328260935    -1.6508881862    -1.3021425853
    9      H      -0.5976517825    -1.3020901514    -1.6798211330
   10      H      -2.4202771356    -0.0242939574     0.1638058102
   11      H      -0.6303253837     1.3218853104    -1.0130829753
   12      C      -1.4568779555     0.4608557232     1.9517631803
   13      H      -2.1450844810     0.3630239999     2.7805534454
 ----------------------------------------------------------------

    2    -286.8724601193      1.65E-09 Convergence criterion met
 Total energy in the final basis set = -286.87246012

         TDDFT/TDA Excitation Energies
 ---------------------------------------------------

 Excited state   1: excitation energy (eV) =    3.1177
 Total energy for state  1:                  -286.75788691 au
    <S**2>     :  0.7669
    Trans. Mom.: -0.0037 X   0.1098 Y  -0.0449 Z
    Strength   :     0.0010767999
    S(  1) --> V(  2) amplitude =  0.1654 alpha
    D( 22) --> S(  1) amplitude = -0.3050 beta
    D( 23) --> S(  1) amplitude =  0.6098 beta
    D( 24) --> S(  1) amplitude =  0.6981 beta

 Excited state   2: excitation energy (eV) =    3.3739
 Total energy for state  2:                  -286.74847201 au
    <S**2>     :  2.6734
    Trans. Mom.: -0.0147 X   0.0027 Y  -0.0064 Z
    Strength   :     0.0000218547
    D( 23) --> V(  1) amplitude = -0.1623 alpha
    D( 24) --> V(  1) amplitude =  0.6038 alpha
    S(  1) --> V(  1) amplitude =  0.2994 alpha
    D( 23) --> V(  1) amplitude =  0.3357 beta
    D( 24) --> V(  1) amplitude = -0.5813 beta

 Excited state   3: excitation energy (eV) =    3.9108
 Total energy for state  3:                  -286.72874114 au
    <S**2>     :  1.9194
    Trans. Mom.: -0.0817 X   0.0321 Y  -0.0123 Z
    Strength   :     0.0007524585
    D( 22) --> V(  1) amplitude =  0.1635 alpha
    D( 23) --> V(  1) amplitude = -0.3910 alpha
    D( 24) --> V(  1) amplitude = -0.2828 alpha
    S(  1) --> V(  1) amplitude =  0.6958 alpha
    D( 22) --> V(  1) amplitude =  0.3962 beta
    D( 24) --> V(  1) amplitude =  0.1798 beta

 Excited state   4: excitation energy (eV) =    4.2109
 Total energy for state  4:                  -286.71771140 au
    <S**2>     :  0.8474
    Trans. Mom.:  0.1162 X  -0.0587 Y  -0.0994 Z
    Strength   :     0.0027696260
    D( 22) --> S(  1) amplitude =  0.3759 beta
    D( 23) --> S(  1) amplitude = -0.5776 beta
    D( 24) --> S(  1) amplitude =  0.6981 beta

 ---------------------------------------------------

                    Orbital Energies (a.u.)
 --------------------------------------------------------------

 Alpha MOs
 -- Occupied --
-14.334 -10.239 -10.234 -10.217 -10.214 -10.213 -10.209  -0.955
 -0.798  -0.778  -0.714  -0.603  -0.573  -0.540  -0.517  -0.483
 -0.452  -0.416  -0.407  -0.385  -0.336  -0.281  -0.278  -0.264
 -0.236

 Beta MOs
 -- Occupied --
-14.334 -10.238 -10.234 -10.215 -10.214 -10.208 -10.202  -0.955
 -0.791  -0.776  -0.703  -0.594  -0.572  -0.531  -0.515  -0.473
 -0.445  -0.414  -0.404  -0.383  -0.335  -0.276  -0.273  -0.261

          Ground-State Mulliken Net Atomic Charges

     Atom                 Charge (a.u.)    Spin (a.u.)
  --------------------------------------------------------
      1 C                    -0.083931      -0.020163
      2 C                     0.002735       0.010274
      3 C                    -0.192328      -0.013934
      4 C                    -0.026621      -0.249158
      5 C                    -0.102293       0.031700
      6 N                    -0.182183       0.003060
      7 H                     0.131303       0.000744
      8 H                     0.134377      -0.000089
      9 H                     0.138814       0.000177
     10 H                     0.137515       0.077548
     11 H                     0.181169      -0.004980
     12 C                    -0.288065       1.158232
     13 H                     0.149509       0.006589
  --------------------------------------------------------
  Sum of atomic charges =     0.000000

                    Cartesian Multipole Moments
 -----------------------------------------------------------------
    Charge (ESU x 10^10)
                 0.0000
    Dipole Moment (Debye)
         X      -0.7397      Y      -1.8464      Z      -1.6758
       Tot       2.6008
    Quadrupole Moments (Debye-Ang)
        XX     -35.0312     XY      -2.1064     YY     -45.2395
        XZ      -1.5068     YZ      -0.6269     ZZ     -41.1827

 Total job time:  232.40s(wall), 211.59s(cpu)
        *  Thank you very much for using Q-Chem.  Have a nice day.  *
