 Q-Chem 5.0, Q-Chem, Inc., Pleasanton, CA (2017)
 Q-Chem 5.0.2 for Intel X86 EM64T Linux

User input:
--------------------------------------------------------------
$molecule
0 2
C        1.6972694309    0.2877733437   -0.2175751338
C        1.0902557585   -0.9150553610   -0.1129985818
C       -0.3618485362   -1.0474943635    0.0890677221
C       -1.1405378472    0.3809635904   -0.0225078153
C       -0.2578247154    1.4999963778   -0.4004543629
N        1.0304887677    1.4986904788   -0.4080281863
H        2.7791331954    0.3568331895   -0.2964601441
H        1.6744799620   -1.8288840867   -0.1888084605
H       -0.8370377445   -1.9446740523   -0.3118577757
H       -2.1406064937    0.4183947886   -0.4588395517
H       -0.7544626997    2.4045882195   -0.7598849679
C       -0.9923357349   -0.3753114904    1.2230470450
H       -1.7869733424   -0.7358206346    1.8653002126
****
C        1.9300045984    0.2989810105   -0.2532650718
C        1.0571184154   -0.7093750450   -0.0896272707
C       -0.2956505656   -0.2031620811   -0.5145766832
C       -1.4198827828   -0.3053964856    0.5008086786
C        0.0683573926    1.2256207046   -0.8799349734
N        1.3190610657    1.4954935994   -0.7417834182
H        2.9969257526    0.3050380052   -0.0623810104
H        1.2552102745   -1.7108300394    0.2696261564
H       -0.6209095695   -0.7133453738   -1.4395463781
H       -2.3947763125    0.0608953723    0.1527318681
H       -0.6449289726    1.9660560561   -1.2364473365
C       -1.3014397331   -0.7765917240    1.7205838077
H       -1.9490895632   -0.9333839988    2.5738116314
$end

$rem
method                b3lyp
basis                 6-31g(d)
unrestricted          true
symmetry              off
sym_ignore            true
incdft                false
incfock               0
scf_convergence       8
thresh                14
jobtype               fsm
scf_guess             core
scf_guess_mix         5
scf_algorithm         diis
max_scf_cycles        100
fsm_nnode             21
fsm_ngrad             6
fsm_mode              2
fsm_opt_mode          2
$end

--------------------------------------------------------------

   20    -286.8549869176      9.68E-09 Convergence criterion met
 Total energy in the final basis set = -286.85498692
   22    -286.8443481763      5.46E-09 Convergence criterion met
 Total energy in the final basis set = -286.84434818
   22    -286.8515412744      5.38E-09 Convergence criterion met
 Total energy in the final basis set = -286.85154127
   21    -286.8533180399      8.63E-09 Convergence criterion met
 Total energy in the final basis set = -286.85331804
   23    -286.8412916838      4.86E-09 Convergence criterion met
 Total energy in the final basis set = -286.84129168
   23    -286.8424854308      4.06E-09 Convergence criterion met
 Total energy in the final basis set = -286.84248543
   22    -286.8477573307      4.22E-09 Convergence criterion met
 Total energy in the final basis set = -286.84775733
   21    -286.8497633082      5.20E-09 Convergence criterion met
 Total energy in the final basis set = -286.72722414
   24    -286.7257857922      3.31E-09 Convergence criterion met
 Total energy in the final basis set = -286.72578579
   24    -286.7271696477      3.58E-09 Convergence criterion met
 Total energy in the final basis set = -286.72716965
   24    -286.7258454941      3.29E-09 Convergence criterion met
 Total energy in the final basis set = -286.72584549
   24    -286.7271467894      3.59E-09 Convergence criterion met
 Total energy in the final basis set = -286.72714679
   24    -286.7258729731      3.28E-09 Convergence criterion met
 Total energy in the final basis set = -286.72587297
   24    -286.7271484170      3.60E-09 Convergence criterion met
 Total energy in the final basis set = -286.72714842
   24    -286.7258766817      3.27E-09 Convergence criterion met
 Total energy in the final basis set = -286.72587668

                    Orbital Energies (a.u.)
 --------------------------------------------------------------

 Alpha MOs
 -- Occupied --
-14.319 -10.251 -10.237 -10.223 -10.221 -10.200 -10.187  -0.946
 -0.836  -0.749  -0.690  -0.599  -0.591  -0.520  -0.502  -0.489
 -0.438  -0.417  -0.382  -0.375  -0.347  -0.274  -0.262  -0.229
 -0.184

 Beta MOs
 -- Occupied --
-14.318 -10.252 -10.235 -10.224 -10.207 -10.201 -10.186  -0.943
 -0.828  -0.746  -0.681  -0.590  -0.588  -0.516  -0.494  -0.481
 -0.437  -0.413  -0.380  -0.370  -0.338  -0.270  -0.225  -0.224

          Ground-State Mulliken Net Atomic Charges

     Atom                 Charge (a.u.)    Spin (a.u.)
  --------------------------------------------------------
      1 C                     0.027010      -0.040634
      2 C                    -0.100399       0.083369
      3 C                    -0.266111       0.087330
      4 C                    -0.167309      -0.079118
      5 C                     0.036840       0.008580
      6 N                    -0.351212       0.080784
      7 H                     0.135652       0.001408
      8 H                     0.141777      -0.003961
      9 H                     0.174404      -0.006921
     10 H                     0.169721       0.051244
     11 H                     0.176133      -0.003414
     12 C                    -0.135398       0.776914
     13 H                     0.158894       0.044419
  --------------------------------------------------------
  Sum of atomic charges =     0.000000

                    Cartesian Multipole Moments
 -----------------------------------------------------------------
    Charge (ESU x 10^10)
                -0.0000
    Dipole Moment (Debye)
         X      -2.3363      Y      -1.7495      Z       0.0406
       Tot       2.9190
    Quadrupole Moments (Debye-Ang)
        XX     -36.3034     XY      -3.1283     YY     -41.5357
        XZ       0.4642     YZ      -0.4525     ZZ     -42.2001

             Standard Nuclear Orientation (Angstroms)
    I     Atom           X                Y                Z
 ----------------------------------------------------------------
    1      C       1.8262650451     0.3384259514    -0.1457453157
    2      C       1.1048074807    -0.8258550581    -0.1442208373
    3      C      -0.2762613671    -0.6093365677    -0.5413637350
    4      C      -1.2947684358     0.1909641266     0.4084480984
    5      C      -0.1325381601     1.1392240757    -0.7438618855
    6      N       1.1005749149     1.4335507050    -0.4735534406
    7      H       2.8953175254     0.4227638847     0.0068801724
    8      H       1.5447020241    -1.8040152671     0.0077866732
    9      H      -0.7952653199    -1.3753189366    -1.1206114733
   10      H      -2.2198576205     0.5071003025    -0.0713820899
   11      H      -0.8459094146     1.9120036941    -1.0359233193
   12      C      -1.1325319656    -0.5072937044     1.5141132177
   13      H      -1.7973099176    -0.8534152571     2.3046663701
 ----------------------------------------------------------------

 Total job time:  3918.87s(wall), 4105.58s(cpu)
        *  Thank you very much for using Q-Chem.  Have a nice day.  *
