 Q-Chem 5.0, Q-Chem, Inc., Pleasanton, CA (2017)
 Q-Chem 5.0.2 for Intel X86 EM64T Linux

User input:
--------------------------------------------------------------
$molecule
0 2
C        1.7881864809    0.2613011065    0.0150435089
C        1.3486153024   -0.9078754872   -0.7643618793
C        0.0518956293   -0.6969844860   -1.0594550782
C       -1.4794855003    0.3921302445    0.5843357106
C       -0.3501702193    0.6139015741   -0.4157242744
N        0.8631165311    1.1355638586    0.2250097658
H        2.7945849138    0.4111977302    0.4003623282
H        1.9576124373   -1.7684260932   -1.0142318016
H       -0.6234984275   -1.3458406350   -1.6038954916
H       -2.4839814673    0.3298386139    0.1482245537
H       -0.6793859690    1.3444327583   -1.1693478117
C       -1.3062823268    0.2054104414    1.8723142503
H       -1.9039825938   -0.0058516682    2.7469586494
$end

$rem
method                b3lyp
basis                 6-31+g(d,p)
unrestricted          true
symmetry              off
sym_ignore            true
incdft                false
incfock               0
scf_convergence       8
thresh                14
jobtype               opt
scf_guess             read
scf_algorithm         diis
max_scf_cycles        100
geom_opt_max_cycles   300
$end

--------------------------------------------------------------

   19    -286.8707875863      7.34E-09 Convergence criterion met
 Total energy in the final basis set = -286.87078759
   14    -286.8716674862      2.94E-09 Convergence criterion met
 Total energy in the final basis set = -286.87166749
   14    -286.8722085616      3.11E-09 Convergence criterion met
 Total energy in the final basis set = -286.87220856
   14    -286.8724219929      2.52E-09 Convergence criterion met
 Total energy in the final basis set = -286.87242199
   13    -286.8724405068      3.94E-09 Convergence criterion met
 Total energy in the final basis set = -286.87244051
   12    -286.8724574706      5.17E-09 Convergence criterion met
 Total energy in the final basis set = -286.87245747
   10    -286.8724594632      9.40E-09 Convergence criterion met
 Total energy in the final basis set = -286.87245946

             Standard Nuclear Orientation (Angstroms)
    I     Atom           X                Y                Z
 ----------------------------------------------------------------
    1      C       1.8292992730     0.2055963639     0.0027210498
    2      C       1.3956671215    -0.8773974438    -0.8940122501
    3      C       0.0738278187    -0.7012486859    -1.0848289440
    4      C      -1.4930931590     0.2999377687     0.6454084139
    5      C      -0.3324657638     0.5294954462    -0.3046825206
    6      N       0.8825351687     1.0054856768     0.3635256679
    7      H       2.8493566116     0.3528370361     0.3520718414
    8      H       2.0310741543    -1.6532883433    -1.3048170137
    9      H      -0.5994037217    -1.3044903085    -1.6824955614
   10      H      -2.4220290748    -0.0266941145     0.1611313818
   11      H      -0.6320773229     1.3194851533    -1.0157574037
   12      C      -1.4586298947     0.4584555661     1.9490887519
   13      H      -2.1468364202     0.3606238428     2.7778790170
 ----------------------------------------------------------------

   10    -286.8724601193      8.57E-09 Convergence criterion met
 Total energy in the final basis set = -286.87246012
 Final energy is   -286.872460119314
 **  OPTIMIZATION CONVERGED  **

                    Orbital Energies (a.u.)
 --------------------------------------------------------------

 Alpha MOs
 -- Occupied --
-14.334 -10.239 -10.234 -10.217 -10.214 -10.213 -10.209  -0.955
 -0.798  -0.778  -0.714  -0.603  -0.573  -0.540  -0.517  -0.483
 -0.452  -0.416  -0.407  -0.385  -0.336  -0.281  -0.278  -0.264
 -0.236

 Beta MOs
 -- Occupied --
-14.334 -10.238 -10.234 -10.215 -10.214 -10.208 -10.202  -0.955
 -0.791  -0.776  -0.703  -0.594  -0.572  -0.531  -0.515  -0.473
 -0.445  -0.414  -0.404  -0.383  -0.335  -0.276  -0.273  -0.261

          Ground-State Mulliken Net Atomic Charges

     Atom                 Charge (a.u.)    Spin (a.u.)
  --------------------------------------------------------
      1 C                    -0.083931      -0.020178
      2 C                     0.002735       0.010293
      3 C                    -0.192327      -0.013955
      4 C                    -0.026621      -0.249156
      5 C                    -0.102293       0.031701
      6 N                    -0.182184       0.003075
      7 H                     0.131303       0.000745
      8 H                     0.134377      -0.000090
      9 H                     0.138814       0.000178
     10 H                     0.137515       0.077548
     11 H                     0.181169      -0.004980
     12 C                    -0.288065       1.158231
     13 H                     0.149509       0.006589
  --------------------------------------------------------
  Sum of atomic charges =    -0.000000

                    Cartesian Multipole Moments
 -----------------------------------------------------------------
    Charge (ESU x 10^10)
                -0.0000
    Dipole Moment (Debye)
         X      -0.7397      Y      -1.8464      Z      -1.6758
       Tot       2.6008
    Quadrupole Moments (Debye-Ang)
        XX     -35.0286     XY      -2.1014     YY     -45.2306
        XZ      -1.5019     YZ      -0.6180     ZZ     -41.1737

 Total job time:  213.30s(wall), 661.23s(cpu)
        *  Thank you very much for using Q-Chem.  Have a nice day.  *
