 Q-Chem 5.0, Q-Chem, Inc., Pleasanton, CA (2017)
 Q-Chem 5.0.2 for Intel X86 EM64T Linux

User input:
--------------------------------------------------------------
$molecule
0 2
C        1.9297441815    0.2991650097   -0.2530683255
C        1.0570459765   -0.7092692137   -0.0889367841
C       -0.2958553305   -0.2035549229   -0.5147918060
C       -1.4200259690   -0.3069116492    0.5008080815
C        0.0681015559    1.2256658026   -0.8792961359
N        1.3188453734    1.4954163840   -0.7405527646
H        2.9969365914    0.3046926158   -0.0635002383
H        1.2569061964   -1.7116176767    0.2669339252
H       -0.6196304014   -0.7134808820   -1.4403409513
H       -2.3946980656    0.0596846148    0.1523797746
H       -0.6448942757    1.9663282926   -1.2358293459
C       -1.3018796140   -0.7742300390    1.7219715860
H       -1.9505962189   -0.9318883358    2.5742229843
$end

$rem
method                b3lyp
basis                 6-31g(d)
unrestricted          true
symmetry              off
sym_ignore            true
incdft                false
incfock               0
scf_convergence       8
thresh                14
jobtype               opt
scf_guess             core
scf_guess_mix         5
scf_algorithm         diis
max_scf_cycles        100
geom_opt_max_cycles   300
$end

--------------------------------------------------------------

   22    -286.8443461686      5.49E-09 Convergence criterion met
 Total energy in the final basis set = -286.84434617
   17    -286.8443477063      3.23E-09 Convergence criterion met
 Total energy in the final basis set = -286.84434771

             Standard Nuclear Orientation (Angstroms)
    I     Atom           X                Y                Z
 ----------------------------------------------------------------
    1      C       1.9300045984     0.2989810105    -0.2532650718
    2      C       1.0571184154    -0.7093750450    -0.0896272707
    3      C      -0.2956505656    -0.2031620811    -0.5145766832
    4      C      -1.4198827828    -0.3053964856     0.5008086786
    5      C       0.0683573926     1.2256207046    -0.8799349734
    6      N       1.3190610657     1.4954935994    -0.7417834182
    7      H       2.9969257526     0.3050380052    -0.0623810104
    8      H       1.2552102745    -1.7108300394     0.2696261564
    9      H      -0.6209095695    -0.7133453738    -1.4395463781
   10      H      -2.3947763125     0.0608953723     0.1527318681
   11      H      -0.6449289726     1.9660560561    -1.2364473365
   12      C      -1.3014397331    -0.7765917240     1.7205838077
   13      H      -1.9490895632    -0.9333839988     2.5738116314
 ----------------------------------------------------------------

   17    -286.8443481904      3.25E-09 Convergence criterion met
 Total energy in the final basis set = -286.84434819
 Final energy is   -286.844348190368
 **  OPTIMIZATION CONVERGED  **

                    Orbital Energies (a.u.)
 --------------------------------------------------------------

 Alpha MOs
 -- Occupied --
-14.329 -10.228 -10.216 -10.213 -10.210 -10.209 -10.190  -0.948
 -0.809  -0.745  -0.713  -0.598  -0.555  -0.544  -0.502  -0.479
 -0.442  -0.414  -0.393  -0.368  -0.344  -0.290  -0.257  -0.245
 -0.233

 Beta MOs
 -- Occupied --
-14.329 -10.228 -10.215 -10.212 -10.209 -10.198 -10.190  -0.948
 -0.803  -0.741  -0.703  -0.590  -0.554  -0.534  -0.500  -0.469
 -0.436  -0.412  -0.393  -0.364  -0.342  -0.285  -0.253  -0.238

          Ground-State Mulliken Net Atomic Charges

     Atom                 Charge (a.u.)    Spin (a.u.)
  --------------------------------------------------------
      1 C                     0.007676       0.001219
      2 C                    -0.123029       0.002696
      3 C                    -0.228306       0.042977
      4 C                    -0.118953      -0.167623
      5 C                     0.085663      -0.006779
      6 N                    -0.370731       0.006818
      7 H                     0.141699      -0.000006
      8 H                     0.147054       0.000260
      9 H                     0.180625      -0.004676
     10 H                     0.149402       0.078389
     11 H                     0.145820      -0.000023
     12 C                    -0.182052       1.042956
     13 H                     0.165133       0.003793
  --------------------------------------------------------
  Sum of atomic charges =    -0.000000

                    Cartesian Multipole Moments
 -----------------------------------------------------------------
    Charge (ESU x 10^10)
                -0.0000
    Dipole Moment (Debye)
         X      -1.9112      Y      -1.5751      Z       0.0329
       Tot       2.4769
    Quadrupole Moments (Debye-Ang)
        XX     -37.6242     XY      -4.0612     YY     -44.0774
        XZ       1.1280     YZ       0.2706     ZZ     -39.9478

 Total job time:  161.33s(wall), 171.55s(cpu)
        *  Thank you very much for using Q-Chem.  Have a nice day.  *
