 Q-Chem 5.0, Q-Chem, Inc., Pleasanton, CA (2017)
 Q-Chem 5.0.2 for Intel X86 EM64T Linux

User input:
--------------------------------------------------------------
$molecule
0 2
C        1.7722288458    0.2976433713   -0.0147386633
C        1.1586848669   -0.8933082847   -0.4158920114
C       -0.1212916597   -0.5165081637   -0.8878894298
C       -1.3285078442    0.0585257404    0.4409335657
C       -0.1579699824    0.9462289295   -0.7126140756
N        1.0057306058    1.4007960709   -0.1912909345
H        2.7641191403    0.3959606579    0.4150206778
H        1.5513343731   -1.8973218412   -0.3324670394
H       -0.7876832961   -1.1070291942   -1.5053212678
H       -2.3087253915    0.1758506223   -0.0242459056
H       -0.8590132628    1.6285739779   -1.1797513622
C       -1.1355111028   -0.1835231094    1.7020097546
H       -1.5761705036   -0.3370908279    2.6714791268
$end

$rem
method                b3lyp
basis                 6-31+g(d,p)
unrestricted          true
symmetry              off
sym_ignore            true
incdft                false
incfock               0
scf_convergence       8
thresh                14
jobtype               sp
scf_guess             read
scf_algorithm         diis
max_scf_cycles        100
$end

--------------------------------------------------------------

             Standard Nuclear Orientation (Angstroms)
    I     Atom           X                Y                Z
 ----------------------------------------------------------------
    1      C       1.7722288458     0.2976433713    -0.0147386633
    2      C       1.1586848669    -0.8933082847    -0.4158920114
    3      C      -0.1212916597    -0.5165081637    -0.8878894298
    4      C      -1.3285078442     0.0585257404     0.4409335657
    5      C      -0.1579699824     0.9462289295    -0.7126140756
    6      N       1.0057306058     1.4007960709    -0.1912909345
    7      H       2.7641191403     0.3959606579     0.4150206778
    8      H       1.5513343731    -1.8973218412    -0.3324670394
    9      H      -0.7876832961    -1.1070291942    -1.5053212678
   10      H      -2.3087253915     0.1758506223    -0.0242459056
   11      H      -0.8590132628     1.6285739779    -1.1797513622
   12      C      -1.1355111028    -0.1835231094     1.7020097546
   13      H      -1.5761705036    -0.3370908279     2.6714791268
 ----------------------------------------------------------------

    3    -286.8169860836      2.06E-09 Convergence criterion met
 Total energy in the final basis set = -286.81698608

                    Orbital Energies (a.u.)
 --------------------------------------------------------------

 Alpha MOs
 -- Occupied --
-14.315 -10.248 -10.245 -10.235 -10.232 -10.217 -10.185  -0.957
 -0.811  -0.760  -0.726  -0.599  -0.576  -0.548  -0.526  -0.489
 -0.447  -0.418  -0.395  -0.388  -0.335  -0.301  -0.264  -0.243
 -0.226

 Beta MOs
 -- Occupied --
-14.316 -10.251 -10.244 -10.230 -10.220 -10.217 -10.186  -0.956
 -0.803  -0.754  -0.716  -0.589  -0.574  -0.539  -0.525  -0.479
 -0.441  -0.418  -0.393  -0.385  -0.330  -0.292  -0.262  -0.222

          Ground-State Mulliken Net Atomic Charges

     Atom                 Charge (a.u.)    Spin (a.u.)
  --------------------------------------------------------
      1 C                    -0.075460       0.019789
      2 C                    -0.073799      -0.049966
      3 C                    -0.038132       0.126599
      4 C                    -0.173745      -0.335541
      5 C                    -0.179750       0.109203
      6 N                    -0.228764      -0.048169
      7 H                     0.125236      -0.001956
      8 H                     0.126700       0.002666
      9 H                     0.156220      -0.007435
     10 H                     0.171466       0.072695
     11 H                     0.155098      -0.005633
     12 C                    -0.138379       1.133900
     13 H                     0.173309      -0.016152
  --------------------------------------------------------
  Sum of atomic charges =     0.000000

                    Cartesian Multipole Moments
 -----------------------------------------------------------------
    Charge (ESU x 10^10)
                 0.0000
    Dipole Moment (Debye)
         X      -2.6273      Y      -2.2483      Z       0.0200
       Tot       3.4580
    Quadrupole Moments (Debye-Ang)
        XX     -37.7033     XY      -3.6108     YY     -46.5965
        XZ       1.0517     YZ      -0.7289     ZZ     -39.1447

 Total job time:  14.89s(wall), 17.40s(cpu)
        *  Thank you very much for using Q-Chem.  Have a nice day.  *
