 Q-Chem 5.0, Q-Chem, Inc., Pleasanton, CA (2017)
 Q-Chem 5.0.2 for Intel X86 EM64T Linux

User input:
--------------------------------------------------------------
$molecule
0 2
C        1.7688905851    0.2991778373   -0.0192515042
C        1.1575412203   -0.8918493987   -0.4172879622
C       -0.1263394556   -0.5180149341   -0.8803221795
C       -1.3058432277    0.0589573387    0.4392140055
C       -0.1618106675    0.9447461255   -0.7043042405
N        1.0051264986    1.4029508509   -0.1909472624
H        2.7631091029    0.3969380248    0.4082854622
H        1.5495446507   -1.8965828980   -0.3324179653
H       -0.7922114606   -1.1075734751   -1.5003215341
H       -2.2946341619    0.1752079283   -0.0106027073
H       -0.8618603385    1.6254355191   -1.1775627827
C       -1.1121103456   -0.1872009528    1.7035902191
H       -1.6121776112   -0.3333940169    2.6471608868
$end

$rem
method                b3lyp
basis                 6-31+g(d,p)
unrestricted          true
symmetry              off
sym_ignore            true
incdft                false
incfock               0
scf_convergence       8
thresh                14
jobtype               sp
scf_guess             core
scf_guess_mix         5
scf_algorithm         diis
max_scf_cycles        100
$end

--------------------------------------------------------------

             Standard Nuclear Orientation (Angstroms)
    I     Atom           X                Y                Z
 ----------------------------------------------------------------
    1      C       1.7688905851     0.2991778373    -0.0192515042
    2      C       1.1575412203    -0.8918493987    -0.4172879622
    3      C      -0.1263394556    -0.5180149341    -0.8803221795
    4      C      -1.3058432277     0.0589573387     0.4392140055
    5      C      -0.1618106675     0.9447461255    -0.7043042405
    6      N       1.0051264986     1.4029508509    -0.1909472624
    7      H       2.7631091029     0.3969380248     0.4082854622
    8      H       1.5495446507    -1.8965828980    -0.3324179653
    9      H      -0.7922114606    -1.1075734751    -1.5003215341
   10      H      -2.2946341619     0.1752079283    -0.0106027073
   11      H      -0.8618603385     1.6254355191    -1.1775627827
   12      C      -1.1121103456    -0.1872009528     1.7035902191
   13      H      -1.6121776112    -0.3333940169     2.6471608868
 ----------------------------------------------------------------

   24    -286.8169118363      3.98E-09 Convergence criterion met
 Total energy in the final basis set = -286.81691184

                    Orbital Energies (a.u.)
 --------------------------------------------------------------

 Alpha MOs
 -- Occupied --
-14.315 -10.249 -10.245 -10.235 -10.232 -10.217 -10.186  -0.958
 -0.814  -0.760  -0.726  -0.599  -0.576  -0.547  -0.527  -0.488
 -0.448  -0.418  -0.394  -0.387  -0.337  -0.300  -0.265  -0.246
 -0.225

 Beta MOs
 -- Occupied --
-14.316 -10.251 -10.244 -10.230 -10.220 -10.216 -10.186  -0.958
 -0.806  -0.754  -0.716  -0.590  -0.575  -0.537  -0.526  -0.478
 -0.442  -0.418  -0.393  -0.385  -0.332  -0.293  -0.263  -0.221

          Ground-State Mulliken Net Atomic Charges

     Atom                 Charge (a.u.)    Spin (a.u.)
  --------------------------------------------------------
      1 C                    -0.077924       0.011751
      2 C                    -0.069256      -0.048744
      3 C                    -0.041024       0.114464
      4 C                    -0.164429      -0.332629
      5 C                    -0.178241       0.098409
      6 N                    -0.227565      -0.047739
      7 H                     0.124710      -0.001548
      8 H                     0.126982       0.002692
      9 H                     0.157372      -0.007074
     10 H                     0.170772       0.073490
     11 H                     0.155753      -0.005294
     12 C                    -0.147464       1.153458
     13 H                     0.170315      -0.011235
  --------------------------------------------------------
  Sum of atomic charges =     0.000000

                    Cartesian Multipole Moments
 -----------------------------------------------------------------
    Charge (ESU x 10^10)
                 0.0000
    Dipole Moment (Debye)
         X      -2.6633      Y      -2.2491      Z      -0.0329
       Tot       3.4861
    Quadrupole Moments (Debye-Ang)
        XX     -37.6223     XY      -3.6052     YY     -46.5634
        XZ       0.9787     YZ      -0.6702     ZZ     -39.4281

 Total job time:  73.92s(wall), 125.03s(cpu)
        *  Thank you very much for using Q-Chem.  Have a nice day.  *
