 Q-Chem 5.0, Q-Chem, Inc., Pleasanton, CA (2017)
 Q-Chem 5.0.2 for Intel X86 EM64T Linux

User input:
--------------------------------------------------------------
$molecule
0 2
C        1.8262650451    0.3384259514   -0.1457453157
C        1.1048074807   -0.8258550581   -0.1442208373
C       -0.2762613671   -0.6093365677   -0.5413637350
C       -1.2947684358    0.1909641266    0.4084480984
C       -0.1325381601    1.1392240757   -0.7438618855
N        1.1005749149    1.4335507050   -0.4735534406
H        2.8953175254    0.4227638847    0.0068801724
H        1.5447020241   -1.8040152671    0.0077866732
H       -0.7952653199   -1.3753189366   -1.1206114733
H       -2.2198576205    0.5071003025   -0.0713820899
H       -0.8459094146    1.9120036941   -1.0359233193
C       -1.1325319656   -0.5072937044    1.5141132177
H       -1.7973099176   -0.8534152571    2.3046663701
$end

$rem
method                b3lyp
basis                 6-31g(d)
unrestricted          true
symmetry              off
sym_ignore            true
incdft                false
incfock               0
scf_convergence       8
thresh                14
jobtype               sp
scf_guess             core
scf_guess_mix         5
scf_algorithm         diis
max_scf_cycles        100
$end

--------------------------------------------------------------

             Standard Nuclear Orientation (Angstroms)
    I     Atom           X                Y                Z
 ----------------------------------------------------------------
    1      C       1.8262650451     0.3384259514    -0.1457453157
    2      C       1.1048074807    -0.8258550581    -0.1442208373
    3      C      -0.2762613671    -0.6093365677    -0.5413637350
    4      C      -1.2947684358     0.1909641266     0.4084480984
    5      C      -0.1325381601     1.1392240757    -0.7438618855
    6      N       1.1005749149     1.4335507050    -0.4735534406
    7      H       2.8953175254     0.4227638847     0.0068801724
    8      H       1.5447020241    -1.8040152671     0.0077866732
    9      H      -0.7952653199    -1.3753189366    -1.1206114733
   10      H      -2.2198576205     0.5071003025    -0.0713820899
   11      H      -0.8459094146     1.9120036941    -1.0359233193
   12      C      -1.1325319656    -0.5072937044     1.5141132177
   13      H      -1.7973099176    -0.8534152571     2.3046663701
 ----------------------------------------------------------------

   24    -286.7459350838      4.19E-09 Convergence criterion met
 Total energy in the final basis set = -286.74593508

                    Orbital Energies (a.u.)
 --------------------------------------------------------------

 Alpha MOs
 -- Occupied --
-14.316 -10.246 -10.231 -10.225 -10.222 -10.201 -10.186  -0.945
 -0.825  -0.747  -0.695  -0.598  -0.587  -0.519  -0.505  -0.486
 -0.435  -0.417  -0.383  -0.374  -0.343  -0.274  -0.259  -0.228
 -0.199

 Beta MOs
 -- Occupied --
-14.315 -10.246 -10.229 -10.226 -10.207 -10.202 -10.185  -0.944
 -0.817  -0.745  -0.684  -0.588  -0.585  -0.515  -0.498  -0.477
 -0.434  -0.413  -0.381  -0.371  -0.335  -0.270  -0.229  -0.222

          Ground-State Mulliken Net Atomic Charges

     Atom                 Charge (a.u.)    Spin (a.u.)
  --------------------------------------------------------
      1 C                     0.027766      -0.019581
      2 C                    -0.106176       0.038517
      3 C                    -0.254641       0.092333
      4 C                    -0.172629      -0.121882
      5 C                     0.039549       0.007313
      6 N                    -0.354656       0.036770
      7 H                     0.136994       0.000631
      8 H                     0.138814      -0.002001
      9 H                     0.173575      -0.008877
     10 H                     0.173859       0.054045
     11 H                     0.170444      -0.002759
     12 C                    -0.135047       0.892039
     13 H                     0.162149       0.033452
  --------------------------------------------------------
  Sum of atomic charges =    -0.000000

                    Cartesian Multipole Moments
 -----------------------------------------------------------------
    Charge (ESU x 10^10)
                -0.0000
    Dipole Moment (Debye)
         X      -2.3217      Y      -1.8131      Z       0.0473
       Tot       2.9462
    Quadrupole Moments (Debye-Ang)
        XX     -36.1440     XY      -3.2218     YY     -42.0851
        XZ       0.4706     YZ      -0.3254     ZZ     -41.7023

 Total job time:  62.01s(wall), 65.63s(cpu)
        *  Thank you very much for using Q-Chem.  Have a nice day.  *
