 Q-Chem 5.0, Q-Chem, Inc., Pleasanton, CA (2017)
 Q-Chem 5.0.2 for Intel X86 EM64T Linux

User input:
--------------------------------------------------------------
$molecule
0 2
C        1.8262650451    0.3384259514   -0.1457453157
C        1.1048074807   -0.8258550581   -0.1442208373
C       -0.2762613671   -0.6093365677   -0.5413637350
C       -1.2947684358    0.1909641266    0.4084480984
C       -0.1325381601    1.1392240757   -0.7438618855
N        1.1005749149    1.4335507050   -0.4735534406
H        2.8953175254    0.4227638847    0.0068801724
H        1.5447020241   -1.8040152671    0.0077866732
H       -0.7952653199   -1.3753189366   -1.1206114733
H       -2.2198576205    0.5071003025   -0.0713820899
H       -0.8459094146    1.9120036941   -1.0359233193
C       -1.1325319656   -0.5072937044    1.5141132177
H       -1.7973099176   -0.8534152571    2.3046663701
$end

$rem
method                b3lyp
basis                 6-31g(d)
unrestricted          true
symmetry              off
sym_ignore            true
incdft                false
incfock               0
scf_convergence       8
thresh                14
jobtype               freq
scf_guess             read
scf_algorithm         diis
max_scf_cycles        100
$end

--------------------------------------------------------------

             Standard Nuclear Orientation (Angstroms)
    I     Atom           X                Y                Z
 ----------------------------------------------------------------
    1      C       1.8262650451     0.3384259514    -0.1457453157
    2      C       1.1048074807    -0.8258550581    -0.1442208373
    3      C      -0.2762613671    -0.6093365677    -0.5413637350
    4      C      -1.2947684358     0.1909641266     0.4084480984
    5      C      -0.1325381601     1.1392240757    -0.7438618855
    6      N       1.1005749149     1.4335507050    -0.4735534406
    7      H       2.8953175254     0.4227638847     0.0068801724
    8      H       1.5447020241    -1.8040152671     0.0077866732
    9      H      -0.7952653199    -1.3753189366    -1.1206114733
   10      H      -2.2198576205     0.5071003025    -0.0713820899
   11      H      -0.8459094146     1.9120036941    -1.0359233193
   12      C      -1.1325319656    -0.5072937044     1.5141132177
   13      H      -1.7973099176    -0.8534152571     2.3046663701
 ----------------------------------------------------------------

    2    -286.7459350839      2.01E-09 Convergence criterion met
 Total energy in the final basis set = -286.74593508

                    Orbital Energies (a.u.)
 --------------------------------------------------------------

 Alpha MOs
 -- Occupied --
-14.316 -10.246 -10.231 -10.225 -10.222 -10.201 -10.186  -0.945
 -0.825  -0.747  -0.695  -0.598  -0.587  -0.519  -0.505  -0.486
 -0.435  -0.417  -0.383  -0.374  -0.343  -0.274  -0.259  -0.228
 -0.199

 Beta MOs
 -- Occupied --
-14.315 -10.246 -10.229 -10.226 -10.207 -10.202 -10.185  -0.944
 -0.817  -0.745  -0.684  -0.588  -0.585  -0.515  -0.498  -0.477
 -0.434  -0.413  -0.381  -0.371  -0.335  -0.270  -0.229  -0.222

          Ground-State Mulliken Net Atomic Charges

     Atom                 Charge (a.u.)    Spin (a.u.)
  --------------------------------------------------------
      1 C                     0.027765      -0.019578
      2 C                    -0.106176       0.038514
      3 C                    -0.254641       0.092333
      4 C                    -0.172629      -0.121882
      5 C                     0.039549       0.007314
      6 N                    -0.354656       0.036769
      7 H                     0.136994       0.000631
      8 H                     0.138814      -0.002001
      9 H                     0.173575      -0.008877
     10 H                     0.173859       0.054045
     11 H                     0.170444      -0.002759
     12 C                    -0.135047       0.892038
     13 H                     0.162149       0.033452
  --------------------------------------------------------
  Sum of atomic charges =    -0.000000

                    Cartesian Multipole Moments
 -----------------------------------------------------------------
    Charge (ESU x 10^10)
                -0.0000
    Dipole Moment (Debye)
         X      -2.3217      Y      -1.8131      Z       0.0473
       Tot       2.9462
    Quadrupole Moments (Debye-Ang)
        XX     -36.1440     XY      -3.2218     YY     -42.0851
        XZ       0.4706     YZ      -0.3254     ZZ     -41.7023

 Frequency:      -627.93                -205.76                 116.40
 Force Cnst:      0.8871                 0.0963                 0.0330
 Red. Mass:       3.8187                 3.8595                 4.1364
 IR Intens:       28.053                 22.435                  0.283
 Frequency:       235.57                 387.49                 504.70
 Force Cnst:      0.1502                 0.2937                 0.5188
 Red. Mass:       4.5941                 3.3200                 3.4568
 IR Intens:        6.828                  7.431                  4.302
 Frequency:       580.76                 634.37                 727.16
 Force Cnst:      0.5048                 0.4557                 0.4934
 Red. Mass:       2.5400                 1.9221                 1.5837
 IR Intens:       22.313                 32.061                 16.187
 Frequency:       764.59                 801.84                 823.35
 Force Cnst:      1.1545                 0.6626                 1.0567
 Red. Mass:       3.3519                 1.7490                 2.6457
 IR Intens:       14.073                 17.102                 10.446
 Frequency:       848.11                 857.84                 894.51
 Force Cnst:      0.7073                 0.6288                 0.6323
 Red. Mass:       1.6689                 1.4503                 1.3413
 IR Intens:       23.653                 83.181                  4.113
 Frequency:       923.04                 969.94                1081.43
 Force Cnst:      0.6823                 0.8423                 1.1439
 Red. Mass:       1.3593                 1.5196                 1.6601
 IR Intens:        4.429                  2.668                  0.901
 Frequency:      1122.10                1182.68                1211.77
 Force Cnst:      1.1276                 1.0728                 1.2306
 Red. Mass:       1.5201                 1.3018                 1.4224
 IR Intens:        9.630                 25.202                 20.967
 Frequency:      1253.41                1275.08                1444.36
 Force Cnst:      1.3161                 1.2370                 2.8427
 Red. Mass:       1.4218                 1.2914                 2.3127
 IR Intens:        5.588                 29.437                  2.596
 Frequency:      1447.60                1559.22                1617.62
 Force Cnst:      7.7833                 6.5658                10.1799
 Red. Mass:       6.3040                 4.5837                 6.6030
 IR Intens:       19.333                 34.280                  1.828
 Frequency:      3133.69                3145.80                3171.53
 Force Cnst:      6.2636                 6.3492                 6.4882
 Red. Mass:       1.0826                 1.0889                 1.0948
 IR Intens:       12.282                  4.477                  3.198
 Frequency:      3179.70                3233.99                3253.78
 Force Cnst:      6.6025                 6.7018                 6.8647
 Red. Mass:       1.1084                 1.0876                 1.1005
 IR Intens:       11.208                  4.944                 21.297

 STANDARD THERMODYNAMIC QUANTITIES AT   298.15 K  AND     1.00 ATM

   This Molecule has  2 Imaginary Frequencies
   Zero point vibrational energy:       60.590 kcal/mol

   Atom    1 Element C  Has Mass   12.00000
   Atom    2 Element C  Has Mass   12.00000
   Atom    3 Element C  Has Mass   12.00000
   Atom    4 Element C  Has Mass   12.00000
   Atom    5 Element C  Has Mass   12.00000
   Atom    6 Element N  Has Mass   14.00307
   Atom    7 Element H  Has Mass    1.00783
   Atom    8 Element H  Has Mass    1.00783
   Atom    9 Element H  Has Mass    1.00783
   Atom   10 Element H  Has Mass    1.00783
   Atom   11 Element H  Has Mass    1.00783
   Atom   12 Element C  Has Mass   12.00000
   Atom   13 Element H  Has Mass    1.00783
   Molecular Mass:    92.050050 amu
   Principal axes and moments of inertia in amu*Bohr^2:
                             1           2           3
    Eigenvalues --      340.34178   638.19210   781.31571
          X               0.85647    -0.44551     0.26072
          Y               0.31814     0.85333     0.41306
          Z              -0.40650    -0.27083     0.87259
   Rotational Symmetry Number is   1
   The Molecule is an Asymmetric Top
   Translational Enthalpy:        0.889 kcal/mol
   Rotational Enthalpy:           0.889 kcal/mol
   Vibrational Enthalpy:         62.354 kcal/mol
   gas constant (RT):             0.592 kcal/mol
   Translational Entropy:        39.471  cal/mol.K
   Rotational Entropy:           26.631  cal/mol.K
   Vibrational Entropy:           9.468  cal/mol.K

   Total Enthalpy:               64.724 kcal/mol
   Total Entropy:                75.570  cal/mol.K

 Total job time:  302.87s(wall), 257.99s(cpu)
        *  Thank you very much for using Q-Chem.  Have a nice day.  *
