 Q-Chem 5.0, Q-Chem, Inc., Pleasanton, CA (2017)
 Q-Chem 5.0.2 for Intel X86 EM64T Linux

User input:
--------------------------------------------------------------
$molecule
0 2
C        1.7688905851    0.2991778373   -0.0192515042
C        1.1575412203   -0.8918493987   -0.4172879622
C       -0.1263394556   -0.5180149341   -0.8803221795
C       -1.3058432277    0.0589573387    0.4392140055
C       -0.1618106675    0.9447461255   -0.7043042405
N        1.0051264986    1.4029508509   -0.1909472624
H        2.7631091029    0.3969380248    0.4082854622
H        1.5495446507   -1.8965828980   -0.3324179653
H       -0.7922114606   -1.1075734751   -1.5003215341
H       -2.2946341619    0.1752079283   -0.0106027073
H       -0.8618603385    1.6254355191   -1.1775627827
C       -1.1121103456   -0.1872009528    1.7035902191
H       -1.6121776112   -0.3333940169    2.6471608868
$end

$rem
method                b3lyp
basis                 6-31+g(d,p)
unrestricted          true
symmetry              off
sym_ignore            true
incdft                false
incfock               0
scf_convergence       8
thresh                14
jobtype               freq
scf_guess             read
scf_algorithm         diis
max_scf_cycles        100
$end

--------------------------------------------------------------

             Standard Nuclear Orientation (Angstroms)
    I     Atom           X                Y                Z
 ----------------------------------------------------------------
    1      C       1.7688905851     0.2991778373    -0.0192515042
    2      C       1.1575412203    -0.8918493987    -0.4172879622
    3      C      -0.1263394556    -0.5180149341    -0.8803221795
    4      C      -1.3058432277     0.0589573387     0.4392140055
    5      C      -0.1618106675     0.9447461255    -0.7043042405
    6      N       1.0051264986     1.4029508509    -0.1909472624
    7      H       2.7631091029     0.3969380248     0.4082854622
    8      H       1.5495446507    -1.8965828980    -0.3324179653
    9      H      -0.7922114606    -1.1075734751    -1.5003215341
   10      H      -2.2946341619     0.1752079283    -0.0106027073
   11      H      -0.8618603385     1.6254355191    -1.1775627827
   12      C      -1.1121103456    -0.1872009528     1.7035902191
   13      H      -1.6121776112    -0.3333940169     2.6471608868
 ----------------------------------------------------------------

    2    -286.8169118362      6.95E-10 Convergence criterion met
 Total energy in the final basis set = -286.81691184

                    Orbital Energies (a.u.)
 --------------------------------------------------------------

 Alpha MOs
 -- Occupied --
-14.315 -10.249 -10.245 -10.235 -10.232 -10.217 -10.186  -0.958
 -0.814  -0.760  -0.726  -0.599  -0.576  -0.547  -0.527  -0.488
 -0.448  -0.418  -0.394  -0.387  -0.337  -0.300  -0.265  -0.246
 -0.225

 Beta MOs
 -- Occupied --
-14.316 -10.251 -10.244 -10.230 -10.220 -10.216 -10.186  -0.958
 -0.806  -0.754  -0.716  -0.590  -0.575  -0.537  -0.526  -0.478
 -0.442  -0.418  -0.393  -0.385  -0.332  -0.293  -0.263  -0.221

          Ground-State Mulliken Net Atomic Charges

     Atom                 Charge (a.u.)    Spin (a.u.)
  --------------------------------------------------------
      1 C                    -0.077924       0.011751
      2 C                    -0.069256      -0.048744
      3 C                    -0.041024       0.114464
      4 C                    -0.164429      -0.332630
      5 C                    -0.178241       0.098409
      6 N                    -0.227565      -0.047739
      7 H                     0.124710      -0.001548
      8 H                     0.126982       0.002692
      9 H                     0.157372      -0.007074
     10 H                     0.170772       0.073490
     11 H                     0.155753      -0.005294
     12 C                    -0.147464       1.153458
     13 H                     0.170315      -0.011234
  --------------------------------------------------------
  Sum of atomic charges =     0.000000

                    Cartesian Multipole Moments
 -----------------------------------------------------------------
    Charge (ESU x 10^10)
                 0.0000
    Dipole Moment (Debye)
         X      -2.6633      Y      -2.2491      Z      -0.0329
       Tot       3.4861
    Quadrupole Moments (Debye-Ang)
        XX     -37.6223     XY      -3.6052     YY     -46.5634
        XZ       0.9787     YZ      -0.6702     ZZ     -39.4281

 Frequency:      -661.82                 128.55                 194.97
 Force Cnst:      1.7822                 0.0324                 0.0854
 Red. Mass:       6.9061                 3.3306                 3.8135
 IR Intens:        4.897                  0.715                  1.090
 Frequency:       287.08                 423.80                 507.53
 Force Cnst:      0.1364                 0.3461                 0.2742
 Red. Mass:       2.8091                 3.2707                 1.8067
 IR Intens:       13.369                  2.538                 39.311
 Frequency:       586.61                 657.02                 692.61
 Force Cnst:      0.3469                 0.6416                 0.6437
 Red. Mass:       1.7110                 2.5227                 2.2774
 IR Intens:       28.673                 41.293                 16.968
 Frequency:       743.55                 780.73                 853.78
 Force Cnst:      0.4328                 0.4731                 0.8580
 Red. Mass:       1.3287                 1.3175                 1.9978
 IR Intens:       15.089                 37.799                 12.871
 Frequency:       873.97                 896.06                 948.28
 Force Cnst:      1.6340                 0.9677                 0.7193
 Red. Mass:       3.6309                 2.0457                 1.3576
 IR Intens:        0.143                  8.846                  2.533
 Frequency:       966.97                1043.46                1070.14
 Force Cnst:      0.7790                 1.0489                 0.8449
 Red. Mass:       1.4141                 1.6351                 1.2521
 IR Intens:        1.129                 13.748                  4.441
 Frequency:      1122.36                1147.19                1201.75
 Force Cnst:      1.4046                 1.0057                 1.6801
 Red. Mass:       1.8925                 1.2971                 1.9744
 IR Intens:        6.271                 18.663                 13.426
 Frequency:      1279.31                1305.73                1384.79
 Force Cnst:      1.5212                 2.2600                 3.6191
 Red. Mass:       1.5776                 2.2499                 3.2032
 IR Intens:       17.363                 20.221                 33.446
 Frequency:      1442.31                1504.77                1598.96
 Force Cnst:      4.0952                 3.8428                 9.4907
 Red. Mass:       3.3413                 2.8805                 6.3005
 IR Intens:       34.221                 12.818                 13.497
 Frequency:      3099.17                3200.47                3207.91
 Force Cnst:      6.1566                 6.5905                 6.6217
 Red. Mass:       1.0879                 1.0920                 1.0921
 IR Intens:       13.887                 16.901                  0.376
 Frequency:      3225.01                3255.06                3316.26
 Force Cnst:      6.7017                 6.8700                 7.1819
 Red. Mass:       1.0936                 1.1005                 1.1084
 IR Intens:        2.440                  4.011                 13.419

 STANDARD THERMODYNAMIC QUANTITIES AT   298.15 K  AND     1.00 ATM

   This Molecule has  1 Imaginary Frequencies
   Zero point vibrational energy:       61.395 kcal/mol

   Atom    1 Element C  Has Mass   12.00000
   Atom    2 Element C  Has Mass   12.00000
   Atom    3 Element C  Has Mass   12.00000
   Atom    4 Element C  Has Mass   12.00000
   Atom    5 Element C  Has Mass   12.00000
   Atom    6 Element N  Has Mass   14.00307
   Atom    7 Element H  Has Mass    1.00783
   Atom    8 Element H  Has Mass    1.00783
   Atom    9 Element H  Has Mass    1.00783
   Atom   10 Element H  Has Mass    1.00783
   Atom   11 Element H  Has Mass    1.00783
   Atom   12 Element C  Has Mass   12.00000
   Atom   13 Element H  Has Mass    1.00783
   Molecular Mass:    92.050050 amu
   Principal axes and moments of inertia in amu*Bohr^2:
                             1           2           3
    Eigenvalues --      370.49262   670.66222   704.13455
          X               0.88402    -0.14870     0.44318
          Y               0.13138     0.98888     0.06973
          Z              -0.44862    -0.00342     0.89372
   Rotational Symmetry Number is   1
   The Molecule is an Asymmetric Top
   Translational Enthalpy:        0.889 kcal/mol
   Rotational Enthalpy:           0.889 kcal/mol
   Vibrational Enthalpy:         63.413 kcal/mol
   gas constant (RT):             0.592 kcal/mol
   Translational Entropy:        39.471  cal/mol.K
   Rotational Entropy:           26.661  cal/mol.K
   Vibrational Entropy:          10.884  cal/mol.K

   Total Enthalpy:               65.783 kcal/mol
   Total Entropy:                77.016  cal/mol.K

 Total job time:  646.07s(wall), 546.02s(cpu)
        *  Thank you very much for using Q-Chem.  Have a nice day.  *
