 Q-Chem 5.0, Q-Chem, Inc., Pleasanton, CA (2017)
 Q-Chem 5.0.2 for Intel X86 EM64T Linux

User input:
--------------------------------------------------------------
$molecule
0 2
C        1.7722288458    0.2976433713   -0.0147386633
C        1.1586848669   -0.8933082847   -0.4158920114
C       -0.1212916597   -0.5165081637   -0.8878894298
C       -1.3285078442    0.0585257404    0.4409335657
C       -0.1579699824    0.9462289295   -0.7126140756
N        1.0057306058    1.4007960709   -0.1912909345
H        2.7641191403    0.3959606579    0.4150206778
H        1.5513343731   -1.8973218412   -0.3324670394
H       -0.7876832961   -1.1070291942   -1.5053212678
H       -2.3087253915    0.1758506223   -0.0242459056
H       -0.8590132628    1.6285739779   -1.1797513622
C       -1.1355111028   -0.1835231094    1.7020097546
H       -1.5761705036   -0.3370908279    2.6714791268
$end

$rem
method                b3lyp
basis                 6-31+g(d,p)
unrestricted          true
symmetry              off
sym_ignore            true
incdft                false
incfock               0
scf_convergence       8
thresh                14
jobtype               freq
scf_guess             read
scf_algorithm         diis
max_scf_cycles        100
$end

--------------------------------------------------------------

             Standard Nuclear Orientation (Angstroms)
    I     Atom           X                Y                Z
 ----------------------------------------------------------------
    1      C       1.7722288458     0.2976433713    -0.0147386633
    2      C       1.1586848669    -0.8933082847    -0.4158920114
    3      C      -0.1212916597    -0.5165081637    -0.8878894298
    4      C      -1.3285078442     0.0585257404     0.4409335657
    5      C      -0.1579699824     0.9462289295    -0.7126140756
    6      N       1.0057306058     1.4007960709    -0.1912909345
    7      H       2.7641191403     0.3959606579     0.4150206778
    8      H       1.5513343731    -1.8973218412    -0.3324670394
    9      H      -0.7876832961    -1.1070291942    -1.5053212678
   10      H      -2.3087253915     0.1758506223    -0.0242459056
   11      H      -0.8590132628     1.6285739779    -1.1797513622
   12      C      -1.1355111028    -0.1835231094     1.7020097546
   13      H      -1.5761705036    -0.3370908279     2.6714791268
 ----------------------------------------------------------------

    2    -286.8169860835      6.32E-10 Convergence criterion met
 Total energy in the final basis set = -286.81698608

                    Orbital Energies (a.u.)
 --------------------------------------------------------------

 Alpha MOs
 -- Occupied --
-14.315 -10.248 -10.245 -10.235 -10.232 -10.217 -10.185  -0.957
 -0.811  -0.760  -0.726  -0.599  -0.576  -0.548  -0.526  -0.489
 -0.447  -0.418  -0.395  -0.388  -0.335  -0.301  -0.264  -0.243
 -0.226

 Beta MOs
 -- Occupied --
-14.316 -10.251 -10.244 -10.230 -10.220 -10.217 -10.186  -0.956
 -0.803  -0.754  -0.716  -0.589  -0.574  -0.539  -0.525  -0.479
 -0.441  -0.418  -0.393  -0.385  -0.330  -0.292  -0.262  -0.222

          Ground-State Mulliken Net Atomic Charges

     Atom                 Charge (a.u.)    Spin (a.u.)
  --------------------------------------------------------
      1 C                    -0.075461       0.019792
      2 C                    -0.073799      -0.049969
      3 C                    -0.038133       0.126600
      4 C                    -0.173745      -0.335543
      5 C                    -0.179750       0.109205
      6 N                    -0.228764      -0.048171
      7 H                     0.125236      -0.001956
      8 H                     0.126700       0.002666
      9 H                     0.156220      -0.007436
     10 H                     0.171466       0.072695
     11 H                     0.155098      -0.005633
     12 C                    -0.138379       1.133902
     13 H                     0.173309      -0.016152
  --------------------------------------------------------
  Sum of atomic charges =     0.000000

                    Cartesian Multipole Moments
 -----------------------------------------------------------------
    Charge (ESU x 10^10)
                 0.0000
    Dipole Moment (Debye)
         X      -2.6273      Y      -2.2483      Z       0.0200
       Tot       3.4580
    Quadrupole Moments (Debye-Ang)
        XX     -37.7033     XY      -3.6108     YY     -46.5965
        XZ       1.0517     YZ      -0.7289     ZZ     -39.1447

 Frequency:      -654.19                 126.66                 190.82
 Force Cnst:      1.7576                 0.0312                 0.0459
 Red. Mass:       6.9705                 3.3022                 2.1378
 IR Intens:        4.937                  0.464                  9.823
 Frequency:       194.98                 415.60                 505.78
 Force Cnst:      0.0983                 0.3210                 0.2780
 Red. Mass:       4.3888                 3.1543                 1.8442
 IR Intens:       10.277                  2.521                 38.198
 Frequency:       584.74                 616.83                 670.62
 Force Cnst:      0.3412                 0.4631                 1.0426
 Red. Mass:       1.6939                 2.0658                 3.9347
 IR Intens:       29.220                 34.960                 20.347
 Frequency:       732.81                 774.80                 850.90
 Force Cnst:      0.4179                 0.4617                 0.7888
 Red. Mass:       1.3210                 1.3055                 1.8491
 IR Intens:       11.080                 43.145                 13.237
 Frequency:       873.23                 891.75                 939.66
 Force Cnst:      1.5776                 1.0429                 0.7091
 Red. Mass:       3.5114                 2.2258                 1.3632
 IR Intens:        0.104                  7.080                  2.542
 Frequency:       960.11                1040.41                1067.11
 Force Cnst:      0.7751                 1.0367                 0.8464
 Red. Mass:       1.4272                 1.6255                 1.2615
 IR Intens:        1.043                 13.606                  5.050
 Frequency:      1116.66                1136.05                1193.72
 Force Cnst:      1.3024                 0.9648                 1.8596
 Red. Mass:       1.7727                 1.2688                 2.2150
 IR Intens:        4.493                 21.080                 15.234
 Frequency:      1275.20                1301.55                1384.92
 Force Cnst:      1.5675                 2.1260                 3.6390
 Red. Mass:       1.6361                 2.1300                 3.2202
 IR Intens:       18.829                 18.805                 37.197
 Frequency:      1437.88                1500.11                1603.86
 Force Cnst:      4.0505                 3.7900                 9.3065
 Red. Mass:       3.3251                 2.8585                 6.1405
 IR Intens:       35.683                 12.499                 14.810
 Frequency:      3111.52                3212.02                3217.66
 Force Cnst:      6.2105                 6.6349                 6.6624
 Red. Mass:       1.0888                 1.0915                 1.0922
 IR Intens:       13.809                 15.202                  0.225
 Frequency:      3231.92                3260.46                3338.28
 Force Cnst:      6.7317                 6.8939                 7.2925
 Red. Mass:       1.0938                 1.1007                 1.1107
 IR Intens:        2.991                  4.142                 18.425

 STANDARD THERMODYNAMIC QUANTITIES AT   298.15 K  AND     1.00 ATM

   This Molecule has  1 Imaginary Frequencies
   Zero point vibrational energy:       61.127 kcal/mol

   Atom    1 Element C  Has Mass   12.00000
   Atom    2 Element C  Has Mass   12.00000
   Atom    3 Element C  Has Mass   12.00000
   Atom    4 Element C  Has Mass   12.00000
   Atom    5 Element C  Has Mass   12.00000
   Atom    6 Element N  Has Mass   14.00307
   Atom    7 Element H  Has Mass    1.00783
   Atom    8 Element H  Has Mass    1.00783
   Atom    9 Element H  Has Mass    1.00783
   Atom   10 Element H  Has Mass    1.00783
   Atom   11 Element H  Has Mass    1.00783
   Atom   12 Element C  Has Mass   12.00000
   Atom   13 Element H  Has Mass    1.00783
   Molecular Mass:    92.050050 amu
   Principal axes and moments of inertia in amu*Bohr^2:
                             1           2           3
    Eigenvalues --      371.42924   677.53195   710.00027
          X               0.88539    -0.14864     0.44045
          Y               0.12834     0.98884     0.07572
          Z              -0.44679    -0.01051     0.89458
   Rotational Symmetry Number is   1
   The Molecule is an Asymmetric Top
   Translational Enthalpy:        0.889 kcal/mol
   Rotational Enthalpy:           0.889 kcal/mol
   Vibrational Enthalpy:         63.267 kcal/mol
   gas constant (RT):             0.592 kcal/mol
   Translational Entropy:        39.471  cal/mol.K
   Rotational Entropy:           26.682  cal/mol.K
   Vibrational Entropy:          11.801  cal/mol.K

   Total Enthalpy:               65.637 kcal/mol
   Total Entropy:                77.954  cal/mol.K

 Total job time:  662.29s(wall), 547.47s(cpu)
        *  Thank you very much for using Q-Chem.  Have a nice day.  *
