 Q-Chem 5.0, Q-Chem, Inc., Pleasanton, CA (2017)
 Q-Chem 5.0.2 for Intel X86 EM64T Linux

User input:
--------------------------------------------------------------
$molecule
0 2
C        1.7688905851    0.2991778373   -0.0192515042
C        1.1575412203   -0.8918493987   -0.4172879622
C       -0.1263394556   -0.5180149341   -0.8803221795
C       -1.3058432277    0.0589573387    0.4392140055
C       -0.1618106675    0.9447461255   -0.7043042405
N        1.0051264986    1.4029508509   -0.1909472624
H        2.7631091029    0.3969380248    0.4082854622
H        1.5495446507   -1.8965828980   -0.3324179653
H       -0.7922114606   -1.1075734751   -1.5003215341
H       -2.2946341619    0.1752079283   -0.0106027073
H       -0.8618603385    1.6254355191   -1.1775627827
C       -1.1121103456   -0.1872009528    1.7035902191
H       -1.6121776112   -0.3333940169    2.6471608868
$end

$rem
method                b3lyp
basis                 6-31g(d)
unrestricted          true
symmetry              off
sym_ignore            true
incdft                false
incfock               0
scf_convergence       8
thresh                14
jobtype               sp
scf_guess             read
scf_algorithm         diis
max_scf_cycles        100
$end

--------------------------------------------------------------

             Standard Nuclear Orientation (Angstroms)
    I     Atom           X                Y                Z
 ----------------------------------------------------------------
    1      C       1.7688905851     0.2991778373    -0.0192515042
    2      C       1.1575412203    -0.8918493987    -0.4172879622
    3      C      -0.1263394556    -0.5180149341    -0.8803221795
    4      C      -1.3058432277     0.0589573387     0.4392140055
    5      C      -0.1618106675     0.9447461255    -0.7043042405
    6      N       1.0051264986     1.4029508509    -0.1909472624
    7      H       2.7631091029     0.3969380248     0.4082854622
    8      H       1.5495446507    -1.8965828980    -0.3324179653
    9      H      -0.7922114606    -1.1075734751    -1.5003215341
   10      H      -2.2946341619     0.1752079283    -0.0106027073
   11      H      -0.8618603385     1.6254355191    -1.1775627827
   12      C      -1.1121103456    -0.1872009528     1.7035902191
   13      H      -1.6121776112    -0.3333940169     2.6471608868
 ----------------------------------------------------------------

    2    -286.7927523882      2.75E-09 Convergence criterion met
 Total energy in the final basis set = -286.79275239

                    Orbital Energies (a.u.)
 --------------------------------------------------------------

 Alpha MOs
 -- Occupied --
-14.299 -10.237 -10.234 -10.223 -10.220 -10.205 -10.174  -0.944
 -0.801  -0.748  -0.715  -0.589  -0.566  -0.538  -0.517  -0.479
 -0.437  -0.407  -0.384  -0.377  -0.325  -0.288  -0.252  -0.234
 -0.212

 Beta MOs
 -- Occupied --
-14.300 -10.239 -10.232 -10.219 -10.207 -10.205 -10.175  -0.944
 -0.794  -0.742  -0.705  -0.579  -0.565  -0.528  -0.516  -0.468
 -0.431  -0.407  -0.383  -0.374  -0.320  -0.280  -0.249  -0.208

          Ground-State Mulliken Net Atomic Charges

     Atom                 Charge (a.u.)    Spin (a.u.)
  --------------------------------------------------------
      1 C                     0.020289       0.046049
      2 C                    -0.124590      -0.062297
      3 C                    -0.173559       0.106059
      4 C                    -0.208343      -0.203068
      5 C                     0.028439       0.068620
      6 N                    -0.390564      -0.054092
      7 H                     0.133321      -0.001737
      8 H                     0.130019       0.002628
      9 H                     0.167071      -0.006435
     10 H                     0.178197       0.073518
     11 H                     0.163962      -0.004885
     12 C                    -0.108884       1.051788
     13 H                     0.184640      -0.016148
  --------------------------------------------------------
  Sum of atomic charges =    -0.000000

                    Cartesian Multipole Moments
 -----------------------------------------------------------------
    Charge (ESU x 10^10)
                -0.0000
    Dipole Moment (Debye)
         X      -2.4965      Y      -2.0955      Z       0.0377
       Tot       3.2596
    Quadrupole Moments (Debye-Ang)
        XX     -36.4582     XY      -3.2581     YY     -44.6624
        XZ       0.6936     YZ      -0.5784     ZZ     -37.9465

 Total job time:  15.33s(wall), 7.83s(cpu)
        *  Thank you very much for using Q-Chem.  Have a nice day.  *
