 Q-Chem 5.0, Q-Chem, Inc., Pleasanton, CA (2017)
 Q-Chem 5.0.2 for Intel X86 EM64T Linux

User input:
--------------------------------------------------------------
$molecule
0 2
C        1.8262650451    0.3384259514   -0.1457453157
C        1.1048074807   -0.8258550581   -0.1442208373
C       -0.2762613671   -0.6093365677   -0.5413637350
C       -1.2947684358    0.1909641266    0.4084480984
C       -0.1325381601    1.1392240757   -0.7438618855
N        1.1005749149    1.4335507050   -0.4735534406
H        2.8953175254    0.4227638847    0.0068801724
H        1.5447020241   -1.8040152671    0.0077866732
H       -0.7952653199   -1.3753189366   -1.1206114733
H       -2.2198576205    0.5071003025   -0.0713820899
H       -0.8459094146    1.9120036941   -1.0359233193
C       -1.1325319656   -0.5072937044    1.5141132177
H       -1.7973099176   -0.8534152571    2.3046663701
$end

$rem
method                b3lyp
basis                 6-31g(d)
unrestricted          true
symmetry              off
sym_ignore            true
incdft                false
incfock               0
scf_convergence       8
thresh                14
jobtype               ts
scf_guess             read
scf_algorithm         diis
max_scf_cycles        100
geom_opt_max_cycles   500
geom_opt_dmax         100
geom_opt_tol_gradient 10
geom_opt_hessian      read
$end

--------------------------------------------------------------

    2    -286.7459350839      7.08E-10 Convergence criterion met
 Total energy in the final basis set = -286.74593508
   16    -286.7473506388      2.88E-09 Convergence criterion met
 Total energy in the final basis set = -286.74735064
   16    -286.7487819053      3.81E-09 Convergence criterion met
 Total energy in the final basis set = -286.74878191
   16    -286.7504339312      4.76E-09 Convergence criterion met
 Total energy in the final basis set = -286.75043393
   16    -286.7522628758      5.36E-09 Convergence criterion met
 Total energy in the final basis set = -286.75226288
   16    -286.7542139795      5.55E-09 Convergence criterion met
 Total energy in the final basis set = -286.75421398
   16    -286.7562490906      5.83E-09 Convergence criterion met
 Total energy in the final basis set = -286.75624909
   14    -286.7583390537      6.10E-09 Convergence criterion met
   11    -286.7927517016      9.11E-09 Convergence criterion met
 Total energy in the final basis set = -286.79275170
   11    -286.7927519689      8.73E-09 Convergence criterion met
 Total energy in the final basis set = -286.79275197
   10    -286.7927520934      5.49E-09 Convergence criterion met
 Total energy in the final basis set = -286.79275209
   14    -286.7927367526      8.14E-09 Convergence criterion met
 Total energy in the final basis set = -286.79273675
   14    -286.7927523599      5.90E-09 Convergence criterion met
 Total energy in the final basis set = -286.79275236
   10    -286.7927523814      3.11E-09 Convergence criterion met
 Total energy in the final basis set = -286.79275238

             Standard Nuclear Orientation (Angstroms)
    I     Atom           X                Y                Z
 ----------------------------------------------------------------
    1      C       1.7688905851     0.2991778373    -0.0192515042
    2      C       1.1575412203    -0.8918493987    -0.4172879622
    3      C      -0.1263394556    -0.5180149341    -0.8803221795
    4      C      -1.3058432277     0.0589573387     0.4392140055
    5      C      -0.1618106675     0.9447461255    -0.7043042405
    6      N       1.0051264986     1.4029508509    -0.1909472624
    7      H       2.7631091029     0.3969380248     0.4082854622
    8      H       1.5495446507    -1.8965828980    -0.3324179653
    9      H      -0.7922114606    -1.1075734751    -1.5003215341
   10      H      -2.2946341619     0.1752079283    -0.0106027073
   11      H      -0.8618603385     1.6254355191    -1.1775627827
   12      C      -1.1121103456    -0.1872009528     1.7035902191
   13      H      -1.6121776112    -0.3333940169     2.6471608868
 ----------------------------------------------------------------

    9    -286.7927523882      9.39E-09 Convergence criterion met
 Total energy in the final basis set = -286.79275239
 Final energy is   -286.792752388239
 **  OPTIMIZATION CONVERGED  **

                    Orbital Energies (a.u.)
 --------------------------------------------------------------

 Alpha MOs
 -- Occupied --
-14.299 -10.237 -10.234 -10.223 -10.220 -10.205 -10.174  -0.944
 -0.801  -0.748  -0.715  -0.589  -0.566  -0.538  -0.517  -0.479
 -0.437  -0.407  -0.384  -0.377  -0.325  -0.288  -0.252  -0.234
 -0.212

 Beta MOs
 -- Occupied --
-14.300 -10.239 -10.232 -10.219 -10.207 -10.205 -10.175  -0.944
 -0.794  -0.742  -0.705  -0.579  -0.565  -0.528  -0.516  -0.468
 -0.431  -0.407  -0.383  -0.374  -0.320  -0.280  -0.249  -0.208

          Ground-State Mulliken Net Atomic Charges

     Atom                 Charge (a.u.)    Spin (a.u.)
  --------------------------------------------------------
      1 C                     0.020289       0.046049
      2 C                    -0.124590      -0.062297
      3 C                    -0.173559       0.106059
      4 C                    -0.208343      -0.203068
      5 C                     0.028439       0.068620
      6 N                    -0.390564      -0.054092
      7 H                     0.133321      -0.001737
      8 H                     0.130019       0.002628
      9 H                     0.167071      -0.006435
     10 H                     0.178197       0.073518
     11 H                     0.163962      -0.004885
     12 C                    -0.108884       1.051788
     13 H                     0.184640      -0.016148
  --------------------------------------------------------
  Sum of atomic charges =     0.000000

                    Cartesian Multipole Moments
 -----------------------------------------------------------------
    Charge (ESU x 10^10)
                -0.0000
    Dipole Moment (Debye)
         X      -2.4965      Y      -2.0955      Z       0.0377
       Tot       3.2596
    Quadrupole Moments (Debye-Ang)
        XX     -36.4582     XY      -3.2581     YY     -44.6624
        XZ       0.6936     YZ      -0.5784     ZZ     -37.9465

 Total job time:  1828.17s(wall), 1982.90s(cpu)
        *  Thank you very much for using Q-Chem.  Have a nice day.  *
