 Q-Chem 5.0, Q-Chem, Inc., Pleasanton, CA (2017)
 Q-Chem 5.0.2 for Intel X86 EM64T Linux

User input:
--------------------------------------------------------------
$molecule
0 2
C        1.5469648954    0.2847564145   -0.2937313297
C        0.6056493303   -0.9047565615   -0.0902679579
C       -0.6034098570   -0.4136589695   -0.9212938795
C       -1.0250663284    0.3812571980    0.7143127771
C       -0.4957107339    1.0268001144   -0.5671321983
N        0.9275908252    1.3859770635   -0.5269174651
H        2.6236111561    0.2510476434   -0.1413864643
H        1.0108778506   -1.9069495503   -0.2257924381
H       -1.2957135482   -0.9512251903   -1.5541219287
H       -1.9457407912    0.7291514435    1.1745493507
H       -1.1478648455    1.7619636942   -1.0295017294
C       -0.1451311523   -0.5973210889    1.2041609137
H       -0.1025552353   -1.0816961759    2.1695615486
$end

$rem
method                b3lyp
basis                 6-31+g(d,p)
unrestricted          true
symmetry              off
sym_ignore            true
incdft                false
incfock               0
scf_convergence       8
thresh                14
jobtype               rpath
scf_guess             core
scf_guess_mix         5
scf_algorithm         diis
max_scf_cycles        100
rpath_direction       1
rpath_tol_displacement 1000
rpath_max_cycles      50
geom_opt_max_cycles   300
geom_opt_hessian      read
$end

--------------------------------------------------------------

   22    -286.8475438619      6.55E-09 Convergence criterion met
 Total energy in the final basis set = -286.84754386
   22    -286.8489563495      7.87E-09 Convergence criterion met
 Total energy in the final basis set = -286.84895635
   22    -286.8489053725      5.68E-09 Convergence criterion met
 Total energy in the final basis set = -286.84890537
   22    -286.8489596763      7.80E-09 Convergence criterion met
 Total energy in the final basis set = -286.84895968
   21    -286.8518820985      8.22E-09 Convergence criterion met
 Total energy in the final basis set = -286.85188210
   21    -286.8516165267      7.91E-09 Convergence criterion met
 Total energy in the final basis set = -286.85161653
   21    -286.8518904637      8.18E-09 Convergence criterion met
 Total energy in the final basis set = -286.85189046
   21    -286.8544328293      3.58E-09 Convergence criterion met
 Total energy in the final basis set = -286.87235802
   21    -286.8734918869      5.76E-09 Convergence criterion met
 Total energy in the final basis set = -286.87349189
   21    -286.8734872984      6.13E-09 Convergence criterion met
 Total energy in the final basis set = -286.87348730
   21    -286.8734943505      5.86E-09 Convergence criterion met
 Total energy in the final basis set = -286.87349435
   21    -286.8711191460      6.06E-09 Convergence criterion met
 Total energy in the final basis set = -286.87111915
   21    -286.8734968351      6.16E-09 Convergence criterion met
 Total energy in the final basis set = -286.87349684
   21    -286.8734961703      5.73E-09 Convergence criterion met
 Total energy in the final basis set = -286.87349617
   21    -286.8734977199      5.99E-09 Convergence criterion met
 Total energy in the final basis set = -286.87349772

                    Orbital Energies (a.u.)
 --------------------------------------------------------------

 Alpha MOs
 -- Occupied --
-14.337 -10.235 -10.231 -10.221 -10.216 -10.213 -10.209  -0.965
 -0.832  -0.737  -0.715  -0.589  -0.583  -0.539  -0.520  -0.481
 -0.429  -0.420  -0.391  -0.382  -0.358  -0.305  -0.283  -0.271
 -0.205

 Beta MOs
 -- Occupied --
-14.336 -10.235 -10.231 -10.221 -10.211 -10.208 -10.202  -0.961
 -0.827  -0.735  -0.700  -0.587  -0.571  -0.536  -0.517  -0.472
 -0.426  -0.416  -0.389  -0.379  -0.352  -0.298  -0.273  -0.268

          Ground-State Mulliken Net Atomic Charges

     Atom                 Charge (a.u.)    Spin (a.u.)
  --------------------------------------------------------
      1 C                    -0.091633      -0.031640
      2 C                     0.009342      -0.061437
      3 C                    -0.270876       1.035347
      4 C                    -0.146545       0.044459
      5 C                     0.023480      -0.090024
      6 N                    -0.203231       0.026109
      7 H                     0.137358      -0.000088
      8 H                     0.124804       0.003437
      9 H                     0.138864      -0.026339
     10 H                     0.138844       0.000732
     11 H                     0.129446       0.003598
     12 C                    -0.128260       0.095752
     13 H                     0.138405       0.000092
  --------------------------------------------------------
  Sum of atomic charges =    -0.000000

                    Cartesian Multipole Moments
 -----------------------------------------------------------------
    Charge (ESU x 10^10)
                 0.0000
    Dipole Moment (Debye)
         X      -0.7930      Y      -2.1870      Z       1.1376
       Tot       2.5896
    Quadrupole Moments (Debye-Ang)
        XX     -38.6190     XY      -4.7720     YY     -44.3419
        XZ       1.1228     YZ       0.5184     ZZ     -42.4990

             Standard Nuclear Orientation (Angstroms)
    I     Atom           X                Y                Z
 ----------------------------------------------------------------
    1      C       1.5469648954     0.2847564145    -0.2937313297
    2      C       0.6056493303    -0.9047565615    -0.0902679579
    3      C      -0.6034098570    -0.4136589695    -0.9212938795
    4      C      -1.0250663284     0.3812571980     0.7143127771
    5      C      -0.4957107339     1.0268001144    -0.5671321983
    6      N       0.9275908252     1.3859770635    -0.5269174651
    7      H       2.6236111561     0.2510476434    -0.1413864643
    8      H       1.0108778506    -1.9069495503    -0.2257924381
    9      H      -1.2957135482    -0.9512251903    -1.5541219287
   10      H      -1.9457407912     0.7291514435     1.1745493507
   11      H      -1.1478648455     1.7619636942    -1.0295017294
   12      C      -0.1451311523    -0.5973210889     1.2041609137
   13      H      -0.1025552353    -1.0816961759     2.1695615486
 ----------------------------------------------------------------

 Total job time:  10922.12s(wall), 35186.84s(cpu)
        *  Thank you very much for using Q-Chem.  Have a nice day.  *
