 Q-Chem 5.0, Q-Chem, Inc., Pleasanton, CA (2017)
 Q-Chem 5.0.2 for Intel X86 EM64T Linux

User input:
--------------------------------------------------------------
$molecule
0 2
C        1.5299432550    0.3207314569   -0.2492136289
C        0.6035286103   -0.9025959185   -0.1118451021
C       -0.4103013280   -0.4479274052   -1.1680764778
C       -0.9933647908    0.4872922764    0.8378133396
C       -0.5668027988    0.9431467886   -0.5674267019
N        0.8835803280    1.3938248232   -0.5007765495
H        2.6110447613    0.3018232013   -0.1283136080
H        1.0583803962   -1.8904705964   -0.1779463258
H       -1.2443001340   -1.0652283302   -1.4947895181
H       -1.7183281797    0.9945191054    1.4633798527
H       -1.1944526739    1.6839278907   -1.0581252484
C       -0.2807650243   -0.6180638706    1.1206762912
H       -0.2781624213   -1.2009794217    2.0346436770
$end

$rem
method                b3lyp
basis                 6-31+g(d,p)
unrestricted          true
symmetry              off
sym_ignore            true
incdft                false
incfock               0
scf_convergence       8
thresh                14
jobtype               sp
scf_guess             read
scf_algorithm         diis
max_scf_cycles        100
scf_final_print       1
$end

--------------------------------------------------------------

             Standard Nuclear Orientation (Angstroms)
    I     Atom           X                Y                Z
 ----------------------------------------------------------------
    1      C       1.5299432550     0.3207314569    -0.2492136289
    2      C       0.6035286103    -0.9025959185    -0.1118451021
    3      C      -0.4103013280    -0.4479274052    -1.1680764778
    4      C      -0.9933647908     0.4872922764     0.8378133396
    5      C      -0.5668027988     0.9431467886    -0.5674267019
    6      N       0.8835803280     1.3938248232    -0.5007765495
    7      H       2.6110447613     0.3018232013    -0.1283136080
    8      H       1.0583803962    -1.8904705964    -0.1779463258
    9      H      -1.2443001340    -1.0652283302    -1.4947895181
   10      H      -1.7183281797     0.9945191054     1.4633798527
   11      H      -1.1944526739     1.6839278907    -1.0581252484
   12      C      -0.2807650243    -0.6180638706     1.1206762912
   13      H      -0.2781624213    -1.2009794217     2.0346436770
 ----------------------------------------------------------------

    2    -286.8734905062      1.38E-09 Convergence criterion met
 Total energy in the final basis set = -286.87349051

                    Orbital Energies (a.u.)
 --------------------------------------------------------------

 Alpha MOs
 -- Occupied --
-14.337 -10.235 -10.231 -10.221 -10.216 -10.213 -10.209  -0.965
 -0.832  -0.737  -0.715  -0.589  -0.583  -0.539  -0.520  -0.481
 -0.429  -0.420  -0.391  -0.382  -0.358  -0.305  -0.283  -0.271
 -0.206

 Beta MOs
 -- Occupied --
-14.336 -10.235 -10.231 -10.221 -10.211 -10.208 -10.202  -0.961
 -0.827  -0.735  -0.700  -0.587  -0.571  -0.536  -0.517  -0.472
 -0.426  -0.416  -0.389  -0.379  -0.352  -0.298  -0.273  -0.268

          Ground-State Mulliken Net Atomic Charges

     Atom                 Charge (a.u.)    Spin (a.u.)
  --------------------------------------------------------
      1 C                    -0.091649      -0.031651
      2 C                     0.009484      -0.061435
      3 C                    -0.270735       1.035338
      4 C                    -0.146566       0.044463
      5 C                     0.023295      -0.090000
      6 N                    -0.203300       0.026113
      7 H                     0.137362      -0.000087
      8 H                     0.124830       0.003436
      9 H                     0.138863      -0.026336
     10 H                     0.138807       0.000720
     11 H                     0.129428       0.003595
     12 C                    -0.128225       0.095758
     13 H                     0.138406       0.000085
  --------------------------------------------------------
  Sum of atomic charges =     0.000000

                    Cartesian Multipole Moments
 -----------------------------------------------------------------
    Charge (ESU x 10^10)
                 0.0000
    Dipole Moment (Debye)
         X      -0.8038      Y      -2.1831      Z       1.1394
       Tot       2.5904
    Quadrupole Moments (Debye-Ang)
        XX     -38.6616     XY      -4.8055     YY     -44.3155
        XZ       1.1272     YZ       0.5029     ZZ     -42.4850

 Total job time:  4.49s(wall), 11.84s(cpu)
        *  Thank you very much for using Q-Chem.  Have a nice day.  *
