 Q-Chem 5.0, Q-Chem, Inc., Pleasanton, CA (2017)
 Q-Chem 5.0.2 for Intel X86 EM64T Linux

User input:
--------------------------------------------------------------
$molecule
0 2
C        1.5541132433    0.2415235810   -0.2638844686
C        0.5854097382   -0.9226157514   -0.0869818864
C       -0.7100649454   -0.3597972546   -0.7781308664
C       -1.1088851381    0.2205773147    0.5997869101
C       -0.4400536824    1.0844860564   -0.5660152606
N        0.9701299836    1.3653741336   -0.4821585222
H        2.6272127396    0.1777765488   -0.0961249413
H        0.9602179414   -1.9270140793   -0.2913735758
H       -1.3320117197   -0.8360200804   -1.5289853752
H       -2.0752665720    0.5388622148    0.9756842447
H       -1.0819433246    1.8535053793   -0.9813204834
C       -0.1286393712   -0.6465084497    1.2342527627
H        0.1797811073   -0.7901496126    2.2652514623
$end

$rem
method                b3lyp
basis                 6-31+g(d,p)
unrestricted          true
symmetry              off
sym_ignore            true
incdft                false
incfock               0
scf_convergence       6
thresh                14
jobtype               sp
scf_guess             read
scf_algorithm         diis
max_scf_cycles        100
stability_analysis    true
max_cis_cycles        100
cis_n_roots           4
$end

--------------------------------------------------------------

             Standard Nuclear Orientation (Angstroms)
    I     Atom           X                Y                Z
 ----------------------------------------------------------------
    1      C       1.5541132433     0.2415235810    -0.2638844686
    2      C       0.5854097382    -0.9226157514    -0.0869818864
    3      C      -0.7100649454    -0.3597972546    -0.7781308664
    4      C      -1.1088851381     0.2205773147     0.5997869101
    5      C      -0.4400536824     1.0844860564    -0.5660152606
    6      N       0.9701299836     1.3653741336    -0.4821585222
    7      H       2.6272127396     0.1777765488    -0.0961249413
    8      H       0.9602179414    -1.9270140793    -0.2913735758
    9      H      -1.3320117197    -0.8360200804    -1.5289853752
   10      H      -2.0752665720     0.5388622148     0.9756842447
   11      H      -1.0819433246     1.8535053793    -0.9813204834
   12      C      -0.1286393712    -0.6465084497     1.2342527627
   13      H       0.1797811073    -0.7901496126     2.2652514623
 ----------------------------------------------------------------

    2    -286.8593580719      1.09E-09 Convergence criterion met
 Total energy in the final basis set = -286.85935807

         TDDFT/TDA Excitation Energies
 ---------------------------------------------------

 Excited state   1: excitation energy (eV) =    3.4314
 Total energy for state  1:                  -286.73325659 au
    <S**2>     :  0.9300
    Trans. Mom.:  0.3574 X   0.1687 Y  -0.1821 Z
    Strength   :     0.0159155812
    S(  1) --> V(  1) amplitude =  0.9243 alpha
    D( 23) --> S(  1) amplitude =  0.3273 beta

 Excited state   2: excitation energy (eV) =    3.6277
 Total energy for state  2:                  -286.72604163 au
    <S**2>     :  1.2346
    Trans. Mom.:  0.0316 X  -0.0614 Y  -0.0552 Z
    Strength   :     0.0006943849
    D( 24) --> V(  1) amplitude = -0.2654 alpha
    D( 24) --> S(  1) amplitude =  0.9227 beta
    D( 24) --> V(  1) amplitude =  0.1525 beta

 Excited state   3: excitation energy (eV) =    4.1454
 Total energy for state  3:                  -286.70701689 au
    <S**2>     :  0.9400
    Trans. Mom.: -0.2798 X  -0.2749 Y   0.3306 Z
    Strength   :     0.0267288572
    S(  1) --> V(  1) amplitude = -0.3366 alpha
    D( 23) --> S(  1) amplitude =  0.8881 beta
    D( 23) --> V(  1) amplitude =  0.1768 beta

 Excited state   4: excitation energy (eV) =    4.3049
 Total energy for state  4:                  -286.70115503 au
    <S**2>     :  0.8080
    Trans. Mom.:  0.1071 X   0.0970 Y   0.0666 Z
    Strength   :     0.0026698124
    S(  1) --> V(  2) amplitude =  0.9832 alpha

 ---------------------------------------------------

                    Orbital Energies (a.u.)
 --------------------------------------------------------------

 Alpha MOs
 -- Occupied --
-14.334 -10.234 -10.230 -10.220 -10.219 -10.219 -10.216  -0.979
 -0.867  -0.759  -0.674  -0.615  -0.580  -0.544  -0.524  -0.475
 -0.448  -0.415  -0.410  -0.366  -0.346  -0.309  -0.285  -0.267
 -0.188

 Beta MOs
 -- Occupied --
-14.333 -10.232 -10.229 -10.221 -10.220 -10.217 -10.204  -0.975
 -0.861  -0.751  -0.662  -0.611  -0.576  -0.537  -0.518  -0.469
 -0.444  -0.412  -0.404  -0.358  -0.342  -0.302  -0.274  -0.262

          Ground-State Mulliken Net Atomic Charges

     Atom                 Charge (a.u.)    Spin (a.u.)
  --------------------------------------------------------
      1 C                    -0.052521       0.053815
      2 C                    -0.027272      -0.115387
      3 C                    -0.062211       0.086418
      4 C                    -0.053423      -0.155043
      5 C                    -0.290927       0.104250
      6 N                    -0.171037       0.035672
      7 H                     0.131202       0.001053
      8 H                     0.133733       0.023609
      9 H                     0.133303       0.000300
     10 H                     0.138593       0.005208
     11 H                     0.144223       0.003524
     12 C                    -0.154472       0.979564
     13 H                     0.130810      -0.022984
  --------------------------------------------------------
  Sum of atomic charges =    -0.000000

                    Cartesian Multipole Moments
 -----------------------------------------------------------------
    Charge (ESU x 10^10)
                -0.0000
    Dipole Moment (Debye)
         X      -1.1042      Y      -2.0086      Z       0.1287
       Tot       2.2957
    Quadrupole Moments (Debye-Ang)
        XX     -38.7246     XY      -5.3424     YY     -45.3060
        XZ       1.9014     YZ       1.2357     ZZ     -41.0319

 Total job time:  215.17s(wall), 196.01s(cpu)
        *  Thank you very much for using Q-Chem.  Have a nice day.  *
