 Q-Chem 5.0, Q-Chem, Inc., Pleasanton, CA (2017)
 Q-Chem 5.0.2 for Intel X86 EM64T Linux

User input:
--------------------------------------------------------------
$molecule
0 2
C        1.5486951731    0.2442336635   -0.2494075832
C        0.5832877847   -0.9254885455   -0.0949144588
C       -0.7096484807   -0.3596107883   -0.7855341012
C       -1.1193955337    0.1992909432    0.5904615686
C       -0.4422521773    1.0835525612   -0.5517996318
N        0.9671171309    1.3696570034   -0.4538244963
H        2.6208252181    0.1780447767   -0.0708608150
H        0.9605783932   -1.9279423739   -0.3083543462
H       -1.3195292186   -0.8226233496   -1.5554190234
H       -2.0921367155    0.5063234239    0.9619766907
H       -1.0832887086    1.8560368313   -0.9641885398
C       -0.1340248975   -0.6634536071    1.2281084250
H        0.2197720324   -0.7380205390    2.2537563110
****
C        1.4825262366    0.2724595264   -0.7649623947
C        1.0842505515   -1.0146957399   -0.4537000461
C       -0.1315368792   -1.4385824429    0.1917562246
C       -1.2193666095    0.7947875889    0.5407952649
C       -0.2920915918    1.6651961865    0.0005430056
N        0.9151843555    1.4874212231   -0.5873220825
H        2.4543706808    0.3437696155   -1.2585250186
H        1.7794107539   -1.8025664178   -0.7335498454
H       -0.2407532086   -2.5112209868    0.3392405509
H       -2.1154014306    1.2563521990    0.9489891892
H       -0.5710466372    2.7200982700    0.0486551365
C       -1.1467847616   -0.6418090736    0.6301777699
H       -1.9987614597   -1.1312099485    1.0979022460
$end

$rem
method                b3lyp
basis                 6-31g(d)
unrestricted          true
symmetry              off
sym_ignore            true
incdft                false
incfock               0
scf_convergence       8
thresh                14
jobtype               fsm
scf_algorithm         rca_diis
thresh_rca_switch     4
max_scf_cycles        300
fsm_nnode             21
fsm_ngrad             6
fsm_mode              2
fsm_opt_mode          2
$end

--------------------------------------------------------------

   18    -286.8383138856      9.84E-09 Convergence criterion met
 Total energy in the final basis set = -286.83831389
   18    -286.9243497505      8.37E-09 Convergence criterion met
 Total energy in the final basis set = -286.92434975
   18    -286.8294181969      5.91E-09 Convergence criterion met
 Total energy in the final basis set = -286.82941820
   18    -286.8328074345      9.79E-09 Convergence criterion met
 Total energy in the final basis set = -286.83280743
   20    -286.9199069697      7.59E-09 Convergence criterion met
 Total energy in the final basis set = -286.91990697
   20    -286.9198264836      3.20E-09 Convergence criterion met
 Total energy in the final basis set = -286.91982648
   20    -286.9195515946      9.15E-09 Convergence criterion met
 Total energy in the final basis set = -286.91955159
   19    -286.9219188513      5.68E-09 Convergence criterion met
 Total energy in the final basis set = -286.74306550
   19    -286.7445706708      5.05E-09 Convergence criterion met
 Total energy in the final basis set = -286.74457067
   19    -286.7431059590      9.53E-09 Convergence criterion met
 Total energy in the final basis set = -286.74310596
   19    -286.7445312925      4.98E-09 Convergence criterion met
 Total energy in the final basis set = -286.74453129
   20    -286.7431532645      3.97E-09 Convergence criterion met
 Total energy in the final basis set = -286.74315326
   19    -286.7444858707      4.82E-09 Convergence criterion met
 Total energy in the final basis set = -286.74448587
   20    -286.7432108555      3.92E-09 Convergence criterion met
 Total energy in the final basis set = -286.74321086
   19    -286.7444310814      4.58E-09 Convergence criterion met
 Total energy in the final basis set = -286.74443108

                    Orbital Energies (a.u.)
 --------------------------------------------------------------

 Alpha MOs
 -- Occupied --
-14.325 -10.248 -10.237 -10.225 -10.220 -10.214 -10.201  -0.957
 -0.850  -0.745  -0.658  -0.608  -0.595  -0.531  -0.492  -0.449
 -0.431  -0.414  -0.398  -0.357  -0.347  -0.293  -0.275  -0.255
 -0.122

 Beta MOs
 -- Occupied --
-14.325 -10.248 -10.232 -10.224 -10.221 -10.215 -10.189  -0.955
 -0.840  -0.743  -0.645  -0.602  -0.586  -0.528  -0.489  -0.442
 -0.426  -0.412  -0.395  -0.353  -0.339  -0.285  -0.261  -0.245

          Ground-State Mulliken Net Atomic Charges

     Atom                 Charge (a.u.)    Spin (a.u.)
  --------------------------------------------------------
      1 C                     0.119737       0.000684
      2 C                    -0.272802      -0.049613
      3 C                    -0.140904       0.239553
      4 C                    -0.143961      -0.060643
      5 C                     0.003862       0.011987
      6 N                    -0.340744       0.006138
      7 H                     0.146073       0.003029
      8 H                     0.141101       0.007930
      9 H                     0.167474      -0.006064
     10 H                     0.153671       0.004930
     11 H                     0.154648       0.009407
     12 C                    -0.122138       0.862393
     13 H                     0.133983      -0.029731
  --------------------------------------------------------
  Sum of atomic charges =     0.000000

                    Cartesian Multipole Moments
 -----------------------------------------------------------------
    Charge (ESU x 10^10)
                 0.0000
    Dipole Moment (Debye)
         X      -1.0445      Y      -1.5066      Z       0.1864
       Tot       1.8427
    Quadrupole Moments (Debye-Ang)
        XX     -37.6136     XY      -4.4134     YY     -41.6750
        XZ      -1.2160     YZ       1.8573     ZZ     -42.5477

             Standard Nuclear Orientation (Angstroms)
    I     Atom           X                Y                Z
 ----------------------------------------------------------------
    1      C       1.5753940496     0.3026002019    -0.3376283870
    2      C       0.6964419381    -0.8837774370    -0.1030823725
    3      C      -0.6579932585    -0.5131472538    -0.7732836692
    4      C      -1.0725664756     0.3577637640     0.5739822870
    5      C      -0.4365494371     1.1756736260    -0.5134848970
    6      N       0.9689809395     1.4159967701    -0.5247814761
    7      H       2.6623446401     0.2552341940    -0.4477773501
    8      H       1.2131780232    -1.8119151227    -0.3813275166
    9      H      -1.1863796843    -1.4248638423    -1.1188534293
   10      H      -2.0198436179     0.7702726045     0.9431619268
   11      H      -0.9912882395     2.0857608403    -0.7672912407
   12      C      -0.2729048906    -0.6630405235     1.1923951228
   13      H      -0.5253124213    -1.1012117864     2.1704102009
 ----------------------------------------------------------------

 Total job time:  1534.55s(wall), 4426.11s(cpu)
        *  Thank you very much for using Q-Chem.  Have a nice day.  *
