 Q-Chem 5.0, Q-Chem, Inc., Pleasanton, CA (2017)
 Q-Chem 5.0.2 for Intel X86 EM64T Linux

User input:
--------------------------------------------------------------
$molecule
0 2
C        1.4820991299    0.2725424787   -0.7656308041
C        1.0840257784   -1.0146457698   -0.4541019803
C       -0.1320596948   -1.4384496080    0.1910028003
C       -1.2190331892    0.7946116283    0.5410725102
C       -0.2920239079    1.6649143012    0.0010751015
N        0.9149157957    1.4872326232   -0.5873994130
H        2.4545514498    0.3436145674   -1.2579293577
H        1.7798790837   -1.8022204571   -0.7330779992
H       -0.2403507677   -2.5109582831    0.3402085090
H       -2.1144497973    1.2568458348    0.9497509139
H       -0.5713653482    2.7196519059    0.0483175314
C       -1.1473142860   -0.6418809140    0.6292035782
H       -1.9988742464   -1.1312583075    1.0975086099
$end

$rem
method                b3lyp
basis                 6-31g(d)
unrestricted          true
symmetry              off
sym_ignore            true
incdft                false
incfock               0
scf_convergence       8
thresh                14
jobtype               opt
scf_guess             core
scf_guess_mix         5
scf_algorithm         diis
max_scf_cycles        100
geom_opt_max_cycles   300
$end

--------------------------------------------------------------

   23    -286.9243488731      2.99E-09 Convergence criterion met
 Total energy in the final basis set = -286.92434887

             Standard Nuclear Orientation (Angstroms)
    I     Atom           X                Y                Z
 ----------------------------------------------------------------
    1      C       1.4825262366     0.2724595264    -0.7649623947
    2      C       1.0842505515    -1.0146957399    -0.4537000461
    3      C      -0.1315368792    -1.4385824429     0.1917562246
    4      C      -1.2193666095     0.7947875889     0.5407952649
    5      C      -0.2920915918     1.6651961865     0.0005430056
    6      N       0.9151843555     1.4874212231    -0.5873220825
    7      H       2.4543706808     0.3437696155    -1.2585250186
    8      H       1.7794107539    -1.8025664178    -0.7335498454
    9      H      -0.2407532086    -2.5112209868     0.3392405509
   10      H      -2.1154014306     1.2563521990     0.9489891892
   11      H      -0.5710466372     2.7200982700     0.0486551365
   12      C      -1.1467847616    -0.6418090736     0.6301777699
   13      H      -1.9987614597    -1.1312099485     1.0979022460
 ----------------------------------------------------------------

   18    -286.9243497024      2.97E-09 Convergence criterion met
 Total energy in the final basis set = -286.92434970
 Final energy is   -286.924349702430
 **  OPTIMIZATION CONVERGED  **

                    Orbital Energies (a.u.)
 --------------------------------------------------------------

 Alpha MOs
 -- Occupied --
-14.322 -10.232 -10.232 -10.212 -10.211 -10.201 -10.200  -0.922
 -0.818  -0.784  -0.693  -0.667  -0.551  -0.537  -0.518  -0.449
 -0.439  -0.414  -0.394  -0.386  -0.349  -0.322  -0.299  -0.251
 -0.162

 Beta MOs
 -- Occupied --
-14.314 -10.233 -10.233 -10.210 -10.210 -10.196 -10.196  -0.911
 -0.809  -0.777  -0.681  -0.665  -0.546  -0.535  -0.514  -0.447
 -0.438  -0.411  -0.383  -0.373  -0.348  -0.295  -0.276  -0.241

          Ground-State Mulliken Net Atomic Charges

     Atom                 Charge (a.u.)    Spin (a.u.)
  --------------------------------------------------------
      1 C                     0.036367      -0.114985
      2 C                    -0.132056       0.351015
      3 C                    -0.110752       0.088634
      4 C                    -0.131163       0.342996
      5 C                     0.035047      -0.110215
      6 N                    -0.423420       0.386796
      7 H                     0.142538       0.003519
      8 H                     0.134294      -0.018520
      9 H                     0.141994      -0.006393
     10 H                     0.134432      -0.018149
     11 H                     0.142665       0.003282
     12 C                    -0.111852       0.098904
     13 H                     0.141908      -0.006884
  --------------------------------------------------------
  Sum of atomic charges =    -0.000000

                    Cartesian Multipole Moments
 -----------------------------------------------------------------
    Charge (ESU x 10^10)
                -0.0000
    Dipole Moment (Debye)
         X      -1.1146      Y      -1.8115      Z       0.7139
       Tot       2.2435
    Quadrupole Moments (Debye-Ang)
        XX     -38.0801     XY      -3.5507     YY     -39.5995
        XZ      -2.3337     YZ       1.4507     ZZ     -42.3199

 Total job time:  55.91s(wall), 118.69s(cpu)
        *  Thank you very much for using Q-Chem.  Have a nice day.  *
