 Q-Chem 5.0, Q-Chem, Inc., Pleasanton, CA (2017)
 Q-Chem 5.0.2 for Intel X86 EM64T Linux

User input:
--------------------------------------------------------------
$molecule
0 2
C        1.5469648954    0.2847564145   -0.2937313297
C        0.6056493303   -0.9047565615   -0.0902679579
C       -0.6034098570   -0.4136589695   -0.9212938795
C       -1.0250663284    0.3812571980    0.7143127771
C       -0.4957107339    1.0268001144   -0.5671321983
N        0.9275908252    1.3859770635   -0.5269174651
H        2.6236111561    0.2510476434   -0.1413864643
H        1.0108778506   -1.9069495503   -0.2257924381
H       -1.2957135482   -0.9512251903   -1.5541219287
H       -1.9457407912    0.7291514435    1.1745493507
H       -1.1478648455    1.7619636942   -1.0295017294
C       -0.1451311523   -0.5973210889    1.2041609137
H       -0.1025552353   -1.0816961759    2.1695615486
$end

$rem
method                b3lyp
basis                 6-31+g(d,p)
unrestricted          true
symmetry              off
sym_ignore            true
incdft                false
incfock               0
scf_convergence       8
thresh                14
jobtype               freq
scf_guess             read
scf_algorithm         diis
max_scf_cycles        100
$end

--------------------------------------------------------------

             Standard Nuclear Orientation (Angstroms)
    I     Atom           X                Y                Z
 ----------------------------------------------------------------
    1      C       1.5469648954     0.2847564145    -0.2937313297
    2      C       0.6056493303    -0.9047565615    -0.0902679579
    3      C      -0.6034098570    -0.4136589695    -0.9212938795
    4      C      -1.0250663284     0.3812571980     0.7143127771
    5      C      -0.4957107339     1.0268001144    -0.5671321983
    6      N       0.9275908252     1.3859770635    -0.5269174651
    7      H       2.6236111561     0.2510476434    -0.1413864643
    8      H       1.0108778506    -1.9069495503    -0.2257924381
    9      H      -1.2957135482    -0.9512251903    -1.5541219287
   10      H      -1.9457407912     0.7291514435     1.1745493507
   11      H      -1.1478648455     1.7619636942    -1.0295017294
   12      C      -0.1451311523    -0.5973210889     1.2041609137
   13      H      -0.1025552353    -1.0816961759     2.1695615486
 ----------------------------------------------------------------

    2    -286.8475438619      7.78E-10 Convergence criterion met
 Total energy in the final basis set = -286.84754386

                    Orbital Energies (a.u.)
 --------------------------------------------------------------

 Alpha MOs
 -- Occupied --
-14.330 -10.235 -10.230 -10.229 -10.226 -10.221 -10.206  -0.972
 -0.849  -0.751  -0.696  -0.602  -0.585  -0.548  -0.522  -0.472
 -0.444  -0.424  -0.409  -0.378  -0.356  -0.296  -0.284  -0.277
 -0.157

 Beta MOs
 -- Occupied --
-14.329 -10.235 -10.231 -10.230 -10.222 -10.217 -10.197  -0.968
 -0.842  -0.747  -0.684  -0.598  -0.577  -0.541  -0.519  -0.463
 -0.441  -0.419  -0.406  -0.373  -0.351  -0.287  -0.275  -0.265

          Ground-State Mulliken Net Atomic Charges

     Atom                 Charge (a.u.)    Spin (a.u.)
  --------------------------------------------------------
      1 C                    -0.069993      -0.002349
      2 C                     0.000465      -0.101947
      3 C                    -0.198981       0.595228
      4 C                    -0.104066      -0.233071
      5 C                    -0.133479      -0.021268
      6 N                    -0.179334       0.062247
      7 H                     0.132744       0.001541
      8 H                     0.129121       0.010525
      9 H                     0.145895      -0.024362
     10 H                     0.139253       0.010263
     11 H                     0.138958       0.004300
     12 C                    -0.139699       0.727904
     13 H                     0.139118      -0.029012
  --------------------------------------------------------
  Sum of atomic charges =     0.000000

                    Cartesian Multipole Moments
 -----------------------------------------------------------------
    Charge (ESU x 10^10)
                 0.0000
    Dipole Moment (Debye)
         X      -1.3464      Y      -2.2071      Z       0.3302
       Tot       2.6064
    Quadrupole Moments (Debye-Ang)
        XX     -38.6468     XY      -5.2827     YY     -44.8116
        XZ       1.2487     YZ       0.9359     ZZ     -41.8937

 Frequency:      -657.39                 332.25                 392.05
 Force Cnst:      1.3955                 0.0761                 0.1022
 Red. Mass:       5.4805                 1.1705                 1.1287
 IR Intens:       34.637                 21.775                 29.412
 Frequency:       438.67                 482.95                 605.66
 Force Cnst:      0.4208                 0.5280                 1.0012
 Red. Mass:       3.7111                 3.8420                 4.6324
 IR Intens:        6.653                  6.182                 14.828
 Frequency:       741.26                 783.71                 825.30
 Force Cnst:      1.9294                 2.5579                 0.8664
 Red. Mass:       5.9599                 7.0686                 2.1590
 IR Intens:        3.364                  5.062                 16.554
 Frequency:       851.41                 882.88                 893.11
 Force Cnst:      1.8187                 0.9667                 0.7020
 Red. Mass:       4.2584                 2.1051                 1.4937
 IR Intens:       10.126                  8.975                  2.932
 Frequency:       913.57                 924.89                 956.90
 Force Cnst:      0.9696                 0.8298                 1.1215
 Red. Mass:       1.9717                 1.6465                 2.0789
 IR Intens:        1.291                 19.931                  2.221
 Frequency:       973.01                1025.54                1084.57
 Force Cnst:      1.1362                 1.2809                 1.2043
 Red. Mass:       2.0369                 2.0670                 1.7376
 IR Intens:        2.461                  3.823                  5.281
 Frequency:      1137.69                1174.67                1215.24
 Force Cnst:      1.2906                 1.4583                 1.3387
 Red. Mass:       1.6924                 1.7937                 1.5385
 IR Intens:       15.236                  1.865                  5.862
 Frequency:      1242.45                1272.96                1318.74
 Force Cnst:      1.4492                 1.1998                 1.5406
 Red. Mass:       1.5934                 1.2566                 1.5036
 IR Intens:        6.946                  0.890                  7.043
 Frequency:      1322.87                1405.90                1626.07
 Force Cnst:      1.8185                 3.1522                11.6915
 Red. Mass:       1.7637                 2.7068                 7.5049
 IR Intens:       15.424                  1.640                 44.267
 Frequency:      3146.79                3184.01                3185.30
 Force Cnst:      6.3600                 6.5189                 6.5341
 Red. Mass:       1.0901                 1.0914                 1.0930
 IR Intens:       17.760                 21.342                  5.951
 Frequency:      3195.02                3258.72                3263.32
 Force Cnst:      6.5727                 6.8492                 6.8814
 Red. Mass:       1.0928                 1.0947                 1.0967
 IR Intens:       18.873                  0.998                  0.610

 STANDARD THERMODYNAMIC QUANTITIES AT   298.15 K  AND     1.00 ATM

   This Molecule has  1 Imaginary Frequencies
   Zero point vibrational energy:       62.983 kcal/mol

   Atom    1 Element C  Has Mass   12.00000
   Atom    2 Element C  Has Mass   12.00000
   Atom    3 Element C  Has Mass   12.00000
   Atom    4 Element C  Has Mass   12.00000
   Atom    5 Element C  Has Mass   12.00000
   Atom    6 Element N  Has Mass   14.00307
   Atom    7 Element H  Has Mass    1.00783
   Atom    8 Element H  Has Mass    1.00783
   Atom    9 Element H  Has Mass    1.00783
   Atom   10 Element H  Has Mass    1.00783
   Atom   11 Element H  Has Mass    1.00783
   Atom   12 Element C  Has Mass   12.00000
   Atom   13 Element H  Has Mass    1.00783
   Molecular Mass:    92.050050 amu
   Principal axes and moments of inertia in amu*Bohr^2:
                             1           2           3
    Eigenvalues --      376.95969   456.60237   566.65706
          X               0.73256    -0.65033     0.20108
          Y               0.48588     0.70644     0.51464
          Z              -0.47674    -0.27930     0.83349
   Rotational Symmetry Number is   1
   The Molecule is an Asymmetric Top
   Translational Enthalpy:        0.889 kcal/mol
   Rotational Enthalpy:           0.889 kcal/mol
   Vibrational Enthalpy:         64.335 kcal/mol
   gas constant (RT):             0.592 kcal/mol
   Translational Entropy:        39.471  cal/mol.K
   Rotational Entropy:           26.081  cal/mol.K
   Vibrational Entropy:           6.249  cal/mol.K

   Total Enthalpy:               66.704 kcal/mol
   Total Entropy:                71.801  cal/mol.K

 Total job time:  570.51s(wall), 559.67s(cpu)
        *  Thank you very much for using Q-Chem.  Have a nice day.  *
