 Q-Chem 5.0, Q-Chem, Inc., Pleasanton, CA (2017)
 Q-Chem 5.0.2 for Intel X86 EM64T Linux

User input:
--------------------------------------------------------------
$molecule
0 2
C        1.5753940496    0.3026002019   -0.3376283870
C        0.6964419381   -0.8837774370   -0.1030823725
C       -0.6579932585   -0.5131472538   -0.7732836692
C       -1.0725664756    0.3577637640    0.5739822870
C       -0.4365494371    1.1756736260   -0.5134848970
N        0.9689809395    1.4159967701   -0.5247814761
H        2.6623446401    0.2552341940   -0.4477773501
H        1.2131780232   -1.8119151227   -0.3813275166
H       -1.1863796843   -1.4248638423   -1.1188534293
H       -2.0198436179    0.7702726045    0.9431619268
H       -0.9912882395    2.0857608403   -0.7672912407
C       -0.2729048906   -0.6630405235    1.1923951228
H       -0.5253124213   -1.1012117864    2.1704102009
$end

$rem
method                b3lyp
basis                 6-31g(d)
unrestricted          true
symmetry              off
sym_ignore            true
incdft                false
incfock               0
scf_convergence       8
thresh                14
jobtype               ts
scf_guess             read
scf_algorithm         diis
max_scf_cycles        100
geom_opt_max_cycles   500
geom_opt_dmax         100
geom_opt_tol_gradient 10
geom_opt_hessian      read
$end

--------------------------------------------------------------

    2    -286.7668447184      6.03E-10 Convergence criterion met
 Total energy in the final basis set = -286.76684472
   14    -286.7705571362      7.65E-09 Convergence criterion met
 Total energy in the final basis set = -286.77055714
   14    -286.7745554724      4.83E-09 Convergence criterion met
 Total energy in the final basis set = -286.77455547
   14    -286.7786575905      3.05E-09 Convergence criterion met
 Total energy in the final basis set = -286.77865759
   14    -286.7825441822      2.44E-09 Convergence criterion met
 Total energy in the final basis set = -286.78254418
   13    -286.7862291147      8.77E-09 Convergence criterion met
 Total energy in the final basis set = -286.78622911
   13    -286.7897387704      7.73E-09 Convergence criterion met
 Total energy in the final basis set = -286.78973877
   13    -286.7930755435      6.89E-09 Convergence criterion met
   13    -286.8244752681      3.46E-09 Convergence criterion met
 Total energy in the final basis set = -286.82447527
   11    -286.8244755507      3.44E-09 Convergence criterion met
 Total energy in the final basis set = -286.82447555
   10    -286.8244757555      4.51E-09 Convergence criterion met
 Total energy in the final basis set = -286.82447576
   10    -286.8244757511      9.73E-09 Convergence criterion met
 Total energy in the final basis set = -286.82447575
    8    -286.8244757717      8.36E-09 Convergence criterion met
 Total energy in the final basis set = -286.82447577
   13    -286.8244588151      3.61E-09 Convergence criterion met
 Total energy in the final basis set = -286.82445882

             Standard Nuclear Orientation (Angstroms)
    I     Atom           X                Y                Z
 ----------------------------------------------------------------
    1      C       1.5435402397     0.2843963131    -0.2906361059
    2      C       0.6026653406    -0.9072820578    -0.0946616364
    3      C      -0.5981292098    -0.4122887101    -0.9314621550
    4      C      -1.0272086996     0.3759569680     0.7110384923
    5      C      -0.4943366483     1.0262558323    -0.5655541072
    6      N       0.9291618445     1.3875417603    -0.5187829549
    7      H       2.6203668650     0.2486447630    -0.1332400754
    8      H       1.0083888810    -1.9097156667    -0.2335115188
    9      H      -1.3015195869    -0.9521954560    -1.5496156710
   10      H      -1.9476712854     0.7261156564     1.1722617581
   11      H      -1.1452301548     1.7636384191    -1.0286174072
   12      C      -0.1524830882    -0.6053433602     1.1981681392
   13      H      -0.0840429321    -1.0603784263     2.1770524412
 ----------------------------------------------------------------

   12    -286.8244757728      9.58E-09 Convergence criterion met
 Total energy in the final basis set = -286.82447577
 Final energy is   -286.824475772849
 **  OPTIMIZATION CONVERGED  **

                    Orbital Energies (a.u.)
 --------------------------------------------------------------

 Alpha MOs
 -- Occupied --
-14.314 -10.224 -10.218 -10.216 -10.212 -10.209 -10.193  -0.959
 -0.836  -0.739  -0.685  -0.590  -0.575  -0.538  -0.513  -0.461
 -0.433  -0.413  -0.398  -0.367  -0.345  -0.284  -0.271  -0.264
 -0.145

 Beta MOs
 -- Occupied --
-14.313 -10.224 -10.219 -10.218 -10.210 -10.204 -10.184  -0.955
 -0.828  -0.735  -0.673  -0.586  -0.566  -0.531  -0.510  -0.453
 -0.429  -0.408  -0.396  -0.362  -0.340  -0.274  -0.261  -0.251

          Ground-State Mulliken Net Atomic Charges

     Atom                 Charge (a.u.)    Spin (a.u.)
  --------------------------------------------------------
      1 C                     0.091555       0.008800
      2 C                    -0.258907      -0.069061
      3 C                    -0.128045       0.570140
      4 C                    -0.132547      -0.216079
      5 C                    -0.028360       0.004322
      6 N                    -0.338714       0.064141
      7 H                     0.143593       0.001570
      8 H                     0.137625       0.010531
      9 H                     0.158495      -0.027815
     10 H                     0.147989       0.011850
     11 H                     0.146720       0.004265
     12 C                    -0.081372       0.664308
     13 H                     0.141968      -0.026972
  --------------------------------------------------------
  Sum of atomic charges =    -0.000000

                    Cartesian Multipole Moments
 -----------------------------------------------------------------
    Charge (ESU x 10^10)
                 0.0000
    Dipole Moment (Debye)
         X      -1.2399      Y      -2.0067      Z       0.3582
       Tot       2.3859
    Quadrupole Moments (Debye-Ang)
        XX     -37.5487     XY      -4.5761     YY     -43.3798
        XZ       1.2833     YZ       0.9187     ZZ     -40.0389

 Total job time:  1342.55s(wall), 3857.40s(cpu)
        *  Thank you very much for using Q-Chem.  Have a nice day.  *
