 Q-Chem 5.0, Q-Chem, Inc., Pleasanton, CA (2017)
 Q-Chem 5.0.2 for Intel X86 EM64T Linux

User input:
--------------------------------------------------------------
$molecule
0 2
C        1.5753940496    0.3026002019   -0.3376283870
C        0.6964419381   -0.8837774370   -0.1030823725
C       -0.6579932585   -0.5131472538   -0.7732836692
C       -1.0725664756    0.3577637640    0.5739822870
C       -0.4365494371    1.1756736260   -0.5134848970
N        0.9689809395    1.4159967701   -0.5247814761
H        2.6623446401    0.2552341940   -0.4477773501
H        1.2131780232   -1.8119151227   -0.3813275166
H       -1.1863796843   -1.4248638423   -1.1188534293
H       -2.0198436179    0.7702726045    0.9431619268
H       -0.9912882395    2.0857608403   -0.7672912407
C       -0.2729048906   -0.6630405235    1.1923951228
H       -0.5253124213   -1.1012117864    2.1704102009
$end

$rem
method                b3lyp
basis                 6-31g(d)
unrestricted          true
symmetry              off
sym_ignore            true
incdft                false
incfock               0
scf_convergence       6
thresh                14
jobtype               sp
scf_guess             read
scf_algorithm         diis
max_scf_cycles        100
stability_analysis    true
max_cis_cycles        100
cis_n_roots           4
$end

--------------------------------------------------------------

             Standard Nuclear Orientation (Angstroms)
    I     Atom           X                Y                Z
 ----------------------------------------------------------------
    1      C       1.5753940496     0.3026002019    -0.3376283870
    2      C       0.6964419381    -0.8837774370    -0.1030823725
    3      C      -0.6579932585    -0.5131472538    -0.7732836692
    4      C      -1.0725664756     0.3577637640     0.5739822870
    5      C      -0.4365494371     1.1756736260    -0.5134848970
    6      N       0.9689809395     1.4159967701    -0.5247814761
    7      H       2.6623446401     0.2552341940    -0.4477773501
    8      H       1.2131780232    -1.8119151227    -0.3813275166
    9      H      -1.1863796843    -1.4248638423    -1.1188534293
   10      H      -2.0198436179     0.7702726045     0.9431619268
   11      H      -0.9912882395     2.0857608403    -0.7672912407
   12      C      -0.2729048906    -0.6630405235     1.1923951228
   13      H      -0.5253124213    -1.1012117864     2.1704102009
 ----------------------------------------------------------------

    2    -286.7668447184      1.55E-09 Convergence criterion met
 Total energy in the final basis set = -286.76684472

         TDDFT/TDA Excitation Energies
 ---------------------------------------------------

 Excited state   1: excitation energy (eV) =    1.4467
 Total energy for state  1:                  -286.71367811 au
    <S**2>     :  0.8100
    Trans. Mom.:  0.0673 X  -0.0314 Y  -0.1487 Z
    Strength   :     0.0009795040
    S(  1) --> V(  1) amplitude =  0.9929 alpha

 Excited state   2: excitation energy (eV) =    3.7891
 Total energy for state  2:                  -286.62759699 au
    <S**2>     :  1.3397
    Trans. Mom.: -0.0304 X   0.0291 Y   0.0098 Z
    Strength   :     0.0001731602
    D( 24) --> V(  1) amplitude =  0.3280 alpha
    S(  1) --> V(  2) amplitude =  0.8456 alpha
    D( 24) --> S(  1) amplitude =  0.3644 beta

 Excited state   3: excitation energy (eV) =    3.9849
 Total energy for state  3:                  -286.62040089 au
    <S**2>     :  1.1771
    Trans. Mom.: -0.0530 X  -0.0247 Y  -0.0701 Z
    Strength   :     0.0008135934
    D( 24) --> V(  1) amplitude = -0.2846 alpha
    S(  1) --> V(  2) amplitude =  0.2437 alpha
    S(  1) --> V(  3) amplitude =  0.8263 alpha
    S(  1) --> V(  4) amplitude = -0.1701 alpha
    D( 23) --> S(  1) amplitude = -0.1618 beta
    D( 24) --> S(  1) amplitude = -0.2641 beta

 Excited state   4: excitation energy (eV) =    4.0456
 Total energy for state  4:                  -286.61817146 au
    <S**2>     :  1.9423
    Trans. Mom.: -0.0328 X  -0.0405 Y  -0.0800 Z
    Strength   :     0.0009037245
    D( 24) --> V(  1) amplitude =  0.5212 alpha
    S(  1) --> V(  2) amplitude = -0.4065 alpha
    S(  1) --> V(  3) amplitude =  0.4768 alpha
    D( 22) --> S(  1) amplitude = -0.1995 beta
    D( 23) --> S(  1) amplitude =  0.3404 beta
    D( 24) --> S(  1) amplitude =  0.3095 beta

 ---------------------------------------------------

                    Orbital Energies (a.u.)
 --------------------------------------------------------------

 Alpha MOs
 -- Occupied --
-14.324 -10.246 -10.232 -10.223 -10.216 -10.211 -10.198  -0.960
 -0.851  -0.745  -0.658  -0.606  -0.597  -0.533  -0.494  -0.452
 -0.433  -0.414  -0.400  -0.355  -0.347  -0.294  -0.275  -0.258
 -0.128

 Beta MOs
 -- Occupied --
-14.324 -10.246 -10.227 -10.223 -10.216 -10.212 -10.186  -0.957
 -0.842  -0.743  -0.645  -0.600  -0.590  -0.530  -0.490  -0.444
 -0.429  -0.412  -0.396  -0.351  -0.340  -0.283  -0.261  -0.249

          Ground-State Mulliken Net Atomic Charges

     Atom                 Charge (a.u.)    Spin (a.u.)
  --------------------------------------------------------
      1 C                     0.118301       0.003657
      2 C                    -0.274988      -0.051631
      3 C                    -0.135720       0.238058
      4 C                    -0.149207      -0.065513
      5 C                     0.002994       0.008726
      6 N                    -0.341313       0.009349
      7 H                     0.146175       0.002913
      8 H                     0.138883       0.008709
      9 H                     0.166035      -0.007099
     10 H                     0.150955       0.004729
     11 H                     0.154968       0.008072
     12 C                    -0.111670       0.872607
     13 H                     0.134587      -0.032577
  --------------------------------------------------------
  Sum of atomic charges =     0.000000

                    Cartesian Multipole Moments
 -----------------------------------------------------------------
    Charge (ESU x 10^10)
                 0.0000
    Dipole Moment (Debye)
         X      -1.0853      Y      -1.5963      Z       0.2187
       Tot       1.9426
    Quadrupole Moments (Debye-Ang)
        XX     -37.5545     XY      -4.3355     YY     -41.7715
        XZ      -0.8530     YZ       1.6049     ZZ     -42.3140

 Total job time:  104.44s(wall), 93.86s(cpu)
        *  Thank you very much for using Q-Chem.  Have a nice day.  *
