 Q-Chem 5.0, Q-Chem, Inc., Pleasanton, CA (2017)
 Q-Chem 5.0.2 for Intel X86 EM64T Linux

User input:
--------------------------------------------------------------
$molecule
0 2
C        1.5753940496    0.3026002019   -0.3376283870
C        0.6964419381   -0.8837774370   -0.1030823725
C       -0.6579932585   -0.5131472538   -0.7732836692
C       -1.0725664756    0.3577637640    0.5739822870
C       -0.4365494371    1.1756736260   -0.5134848970
N        0.9689809395    1.4159967701   -0.5247814761
H        2.6623446401    0.2552341940   -0.4477773501
H        1.2131780232   -1.8119151227   -0.3813275166
H       -1.1863796843   -1.4248638423   -1.1188534293
H       -2.0198436179    0.7702726045    0.9431619268
H       -0.9912882395    2.0857608403   -0.7672912407
C       -0.2729048906   -0.6630405235    1.1923951228
H       -0.5253124213   -1.1012117864    2.1704102009
$end

$rem
method                b3lyp
basis                 6-31g(d)
unrestricted          true
symmetry              off
sym_ignore            true
incdft                false
incfock               0
scf_convergence       8
thresh                14
jobtype               freq
scf_guess             read
scf_algorithm         diis
max_scf_cycles        100
$end

--------------------------------------------------------------

             Standard Nuclear Orientation (Angstroms)
    I     Atom           X                Y                Z
 ----------------------------------------------------------------
    1      C       1.5753940496     0.3026002019    -0.3376283870
    2      C       0.6964419381    -0.8837774370    -0.1030823725
    3      C      -0.6579932585    -0.5131472538    -0.7732836692
    4      C      -1.0725664756     0.3577637640     0.5739822870
    5      C      -0.4365494371     1.1756736260    -0.5134848970
    6      N       0.9689809395     1.4159967701    -0.5247814761
    7      H       2.6623446401     0.2552341940    -0.4477773501
    8      H       1.2131780232    -1.8119151227    -0.3813275166
    9      H      -1.1863796843    -1.4248638423    -1.1188534293
   10      H      -2.0198436179     0.7702726045     0.9431619268
   11      H      -0.9912882395     2.0857608403    -0.7672912407
   12      C      -0.2729048906    -0.6630405235     1.1923951228
   13      H      -0.5253124213    -1.1012117864     2.1704102009
 ----------------------------------------------------------------

    2    -286.7668447185      1.30E-09 Convergence criterion met
 Total energy in the final basis set = -286.76684472

                    Orbital Energies (a.u.)
 --------------------------------------------------------------

 Alpha MOs
 -- Occupied --
-14.324 -10.246 -10.232 -10.223 -10.216 -10.211 -10.198  -0.960
 -0.851  -0.745  -0.658  -0.606  -0.597  -0.533  -0.494  -0.452
 -0.433  -0.414  -0.400  -0.355  -0.347  -0.294  -0.275  -0.258
 -0.128

 Beta MOs
 -- Occupied --
-14.324 -10.246 -10.227 -10.223 -10.216 -10.212 -10.186  -0.957
 -0.842  -0.743  -0.645  -0.600  -0.590  -0.530  -0.490  -0.444
 -0.429  -0.412  -0.396  -0.351  -0.340  -0.283  -0.261  -0.249

          Ground-State Mulliken Net Atomic Charges

     Atom                 Charge (a.u.)    Spin (a.u.)
  --------------------------------------------------------
      1 C                     0.118301       0.003662
      2 C                    -0.274988      -0.051632
      3 C                    -0.135720       0.238057
      4 C                    -0.149207      -0.065513
      5 C                     0.002994       0.008727
      6 N                    -0.341313       0.009344
      7 H                     0.146175       0.002912
      8 H                     0.138883       0.008709
      9 H                     0.166035      -0.007099
     10 H                     0.150955       0.004729
     11 H                     0.154968       0.008072
     12 C                    -0.111670       0.872608
     13 H                     0.134587      -0.032577
  --------------------------------------------------------
  Sum of atomic charges =    -0.000000

                    Cartesian Multipole Moments
 -----------------------------------------------------------------
    Charge (ESU x 10^10)
                -0.0000
    Dipole Moment (Debye)
         X      -1.0853      Y      -1.5963      Z       0.2187
       Tot       1.9426
    Quadrupole Moments (Debye-Ang)
        XX     -37.5545     XY      -4.3355     YY     -41.7715
        XZ      -0.8530     YZ       1.6049     ZZ     -42.3140

 Frequency:      -495.99                -126.58                 276.11
 Force Cnst:      0.2186                 0.0295                 0.1838
 Red. Mass:       1.5081                 3.1263                 4.0929
 IR Intens:       35.499                  9.448                 21.124
 Frequency:       386.19                 450.01                 571.50
 Force Cnst:      0.3170                 0.4004                 0.9651
 Red. Mass:       3.6079                 3.3559                 5.0155
 IR Intens:        1.820                  2.361                 23.230
 Frequency:       664.86                 702.95                 740.26
 Force Cnst:      1.0233                 1.3447                 1.6528
 Red. Mass:       3.9293                 4.6188                 5.1193
 IR Intens:        4.020                  2.810                  2.200
 Frequency:       815.25                 868.05                 902.14
 Force Cnst:      0.5045                 1.1935                 0.6768
 Red. Mass:       1.2883                 2.6883                 1.4115
 IR Intens:        5.217                 14.670                  8.322
 Frequency:       929.00                 980.70                 999.67
 Force Cnst:      1.4163                 2.0103                 1.2592
 Red. Mass:       2.7854                 3.5477                 2.1387
 IR Intens:        5.681                  3.247                 11.146
 Frequency:      1017.38                1029.22                1069.54
 Force Cnst:      0.8892                 0.9681                 0.9434
 Red. Mass:       1.4581                 1.5511                 1.3997
 IR Intens:       15.049                  6.889                  7.739
 Frequency:      1127.11                1165.36                1186.99
 Force Cnst:      1.1977                 1.2626                 1.1866
 Red. Mass:       1.6002                 1.5779                 1.4294
 IR Intens:        4.408                  4.801                  2.342
 Frequency:      1249.18                1311.49                1327.82
 Force Cnst:      1.4650                 1.4892                 1.5509
 Red. Mass:       1.5934                 1.4695                 1.4929
 IR Intens:       11.936                 10.299                  7.766
 Frequency:      1362.05                1412.25                1677.38
 Force Cnst:      1.5794                 2.4925                12.0588
 Red. Mass:       1.4449                 2.1211                 7.2743
 IR Intens:       11.928                  6.630                 25.137
 Frequency:      2993.27                3060.21                3077.21
 Force Cnst:      5.7487                 6.0249                 6.0753
 Red. Mass:       1.0890                 1.0919                 1.0889
 IR Intens:        3.841                 10.144                 19.832
 Frequency:      3092.72                3115.17                3138.83
 Force Cnst:      6.1529                 6.2406                 6.3462
 Red. Mass:       1.0918                 1.0915                 1.0933
 IR Intens:       13.146                 25.120                 28.002

 STANDARD THERMODYNAMIC QUANTITIES AT   298.15 K  AND     1.00 ATM

   This Molecule has  2 Imaginary Frequencies
   Zero point vibrational energy:       61.042 kcal/mol

   Atom    1 Element C  Has Mass   12.00000
   Atom    2 Element C  Has Mass   12.00000
   Atom    3 Element C  Has Mass   12.00000
   Atom    4 Element C  Has Mass   12.00000
   Atom    5 Element C  Has Mass   12.00000
   Atom    6 Element N  Has Mass   14.00307
   Atom    7 Element H  Has Mass    1.00783
   Atom    8 Element H  Has Mass    1.00783
   Atom    9 Element H  Has Mass    1.00783
   Atom   10 Element H  Has Mass    1.00783
   Atom   11 Element H  Has Mass    1.00783
   Atom   12 Element C  Has Mass   12.00000
   Atom   13 Element H  Has Mass    1.00783
   Molecular Mass:    92.050050 amu
   Principal axes and moments of inertia in amu*Bohr^2:
                             1           2           3
    Eigenvalues --      362.37709   472.65085   616.21875
          X               0.73851    -0.62510     0.25269
          Y               0.52525     0.76837     0.36567
          Z              -0.42275    -0.13733     0.89578
   Rotational Symmetry Number is   1
   The Molecule is an Asymmetric Top
   Translational Enthalpy:        0.889 kcal/mol
   Rotational Enthalpy:           0.889 kcal/mol
   Vibrational Enthalpy:         62.342 kcal/mol
   gas constant (RT):             0.592 kcal/mol
   Translational Entropy:        39.471  cal/mol.K
   Rotational Entropy:           26.159  cal/mol.K
   Vibrational Entropy:           6.112  cal/mol.K

   Total Enthalpy:               64.712 kcal/mol
   Total Entropy:                71.742  cal/mol.K

 Total job time:  268.90s(wall), 258.06s(cpu)
        *  Thank you very much for using Q-Chem.  Have a nice day.  *
