 Q-Chem 5.0, Q-Chem, Inc., Pleasanton, CA (2017)
 Q-Chem 5.0.2 for Intel X86 EM64T Linux

User input:
--------------------------------------------------------------
$molecule
0 2
C        1.5435402397    0.2843963131   -0.2906361059
C        0.6026653406   -0.9072820578   -0.0946616364
C       -0.5981292098   -0.4122887101   -0.9314621550
C       -1.0272086996    0.3759569680    0.7110384923
C       -0.4943366483    1.0262558323   -0.5655541072
N        0.9291618445    1.3875417603   -0.5187829549
H        2.6203668650    0.2486447630   -0.1332400754
H        1.0083888810   -1.9097156667   -0.2335115188
H       -1.3015195869   -0.9521954560   -1.5496156710
H       -1.9476712854    0.7261156564    1.1722617581
H       -1.1452301548    1.7636384191   -1.0286174072
C       -0.1524830882   -0.6053433602    1.1981681392
H       -0.0840429321   -1.0603784263    2.1770524412
$end

$rem
method                b3lyp
basis                 6-31+g(d,p)
unrestricted          true
symmetry              off
sym_ignore            true
incdft                false
incfock               0
scf_convergence       6
thresh                14
jobtype               sp
scf_guess             read
scf_algorithm         diis
max_scf_cycles        100
stability_analysis    true
max_cis_cycles        100
cis_n_roots           4
$end

--------------------------------------------------------------

             Standard Nuclear Orientation (Angstroms)
    I     Atom           X                Y                Z
 ----------------------------------------------------------------
    1      C       1.5435402397     0.2843963131    -0.2906361059
    2      C       0.6026653406    -0.9072820578    -0.0946616364
    3      C      -0.5981292098    -0.4122887101    -0.9314621550
    4      C      -1.0272086996     0.3759569680     0.7110384923
    5      C      -0.4943366483     1.0262558323    -0.5655541072
    6      N       0.9291618445     1.3875417603    -0.5187829549
    7      H       2.6203668650     0.2486447630    -0.1332400754
    8      H       1.0083888810    -1.9097156667    -0.2335115188
    9      H      -1.3015195869    -0.9521954560    -1.5496156710
   10      H      -1.9476712854     0.7261156564     1.1722617581
   11      H      -1.1452301548     1.7636384191    -1.0286174072
   12      C      -0.1524830882    -0.6053433602     1.1981681392
   13      H      -0.0840429321    -1.0603784263     2.1770524412
 ----------------------------------------------------------------

    2    -286.8475018679      2.80E-09 Convergence criterion met
 Total energy in the final basis set = -286.84750187

         TDDFT/TDA Excitation Energies
 ---------------------------------------------------

 Excited state   1: excitation energy (eV) =    2.5761
 Total energy for state  1:                  -286.75283305 au
    <S**2>     :  0.7764
    Trans. Mom.:  0.2820 X   0.0942 Y   0.3499 Z
    Strength   :     0.0133038522
    S(  1) --> V(  1) amplitude =  0.8824 alpha
    S(  1) --> V(  2) amplitude =  0.3719 alpha
    D( 24) --> S(  1) amplitude = -0.1839 beta

 Excited state   2: excitation energy (eV) =    2.8634
 Total energy for state  2:                  -286.74227289 au
    <S**2>     :  0.7998
    Trans. Mom.: -0.4031 X  -0.2030 Y   0.2791 Z
    Strength   :     0.0197505132
    S(  1) --> V(  1) amplitude = -0.4163 alpha
    S(  1) --> V(  2) amplitude =  0.8717 alpha
    D( 24) --> S(  1) amplitude = -0.1589 beta

 Excited state   3: excitation energy (eV) =    3.4068
 Total energy for state  3:                  -286.72230491 au
    <S**2>     :  0.7861
    Trans. Mom.:  0.0089 X   0.1085 Y   0.2605 Z
    Strength   :     0.0066536371
    S(  1) --> V(  3) amplitude =  0.9857 alpha

 Excited state   4: excitation energy (eV) =    3.9453
 Total energy for state  4:                  -286.70251522 au
    <S**2>     :  0.7900
    Trans. Mom.:  0.2017 X  -0.1062 Y   0.1375 Z
    Strength   :     0.0068515075
    S(  1) --> V(  4) amplitude =  0.9815 alpha

 ---------------------------------------------------

                    Orbital Energies (a.u.)
 --------------------------------------------------------------

 Alpha MOs
 -- Occupied --
-14.330 -10.235 -10.230 -10.228 -10.225 -10.221 -10.207  -0.973
 -0.850  -0.750  -0.696  -0.601  -0.585  -0.547  -0.522  -0.473
 -0.444  -0.425  -0.408  -0.378  -0.356  -0.296  -0.284  -0.278
 -0.158

 Beta MOs
 -- Occupied --
-14.329 -10.235 -10.231 -10.230 -10.222 -10.217 -10.197  -0.969
 -0.842  -0.747  -0.684  -0.597  -0.577  -0.541  -0.519  -0.464
 -0.441  -0.419  -0.406  -0.373  -0.351  -0.287  -0.275  -0.266

          Ground-State Mulliken Net Atomic Charges

     Atom                 Charge (a.u.)    Spin (a.u.)
  --------------------------------------------------------
      1 C                    -0.071244      -0.001754
      2 C                     0.006045      -0.101952
      3 C                    -0.199604       0.600542
      4 C                    -0.101389      -0.236411
      5 C                    -0.135653      -0.018978
      6 N                    -0.178726       0.062363
      7 H                     0.132217       0.001590
      8 H                     0.129401       0.011021
      9 H                     0.146876      -0.025598
     10 H                     0.138987       0.010754
     11 H                     0.138683       0.004559
     12 C                    -0.144221       0.720604
     13 H                     0.138627      -0.026739
  --------------------------------------------------------
  Sum of atomic charges =    -0.000000

                    Cartesian Multipole Moments
 -----------------------------------------------------------------
    Charge (ESU x 10^10)
                 0.0000
    Dipole Moment (Debye)
         X      -1.3281      Y      -2.1857      Z       0.3539
       Tot       2.5819
    Quadrupole Moments (Debye-Ang)
        XX     -38.6758     XY      -5.2809     YY     -44.8639
        XZ       1.3268     YZ       0.9669     ZZ     -41.8461

 Total job time:  196.50s(wall), 183.39s(cpu)
        *  Thank you very much for using Q-Chem.  Have a nice day.  *
