 Q-Chem 5.0, Q-Chem, Inc., Pleasanton, CA (2017)
 Q-Chem 5.0.2 for Intel X86 EM64T Linux

User input:
--------------------------------------------------------------
$molecule
0 2
C        1.5435402397    0.2843963131   -0.2906361059
C        0.6026653406   -0.9072820578   -0.0946616364
C       -0.5981292098   -0.4122887101   -0.9314621550
C       -1.0272086996    0.3759569680    0.7110384923
C       -0.4943366483    1.0262558323   -0.5655541072
N        0.9291618445    1.3875417603   -0.5187829549
H        2.6203668650    0.2486447630   -0.1332400754
H        1.0083888810   -1.9097156667   -0.2335115188
H       -1.3015195869   -0.9521954560   -1.5496156710
H       -1.9476712854    0.7261156564    1.1722617581
H       -1.1452301548    1.7636384191   -1.0286174072
C       -0.1524830882   -0.6053433602    1.1981681392
H       -0.0840429321   -1.0603784263    2.1770524412
$end

$rem
method                b3lyp
basis                 6-31g(d)
unrestricted          true
symmetry              off
sym_ignore            true
incdft                false
incfock               0
scf_convergence       6
thresh                14
jobtype               sp
scf_guess             read
scf_algorithm         diis
max_scf_cycles        100
stability_analysis    true
max_cis_cycles        100
cis_n_roots           4
$end

--------------------------------------------------------------

             Standard Nuclear Orientation (Angstroms)
    I     Atom           X                Y                Z
 ----------------------------------------------------------------
    1      C       1.5435402397     0.2843963131    -0.2906361059
    2      C       0.6026653406    -0.9072820578    -0.0946616364
    3      C      -0.5981292098    -0.4122887101    -0.9314621550
    4      C      -1.0272086996     0.3759569680     0.7110384923
    5      C      -0.4943366483     1.0262558323    -0.5655541072
    6      N       0.9291618445     1.3875417603    -0.5187829549
    7      H       2.6203668650     0.2486447630    -0.1332400754
    8      H       1.0083888810    -1.9097156667    -0.2335115188
    9      H      -1.3015195869    -0.9521954560    -1.5496156710
   10      H      -1.9476712854     0.7261156564     1.1722617581
   11      H      -1.1452301548     1.7636384191    -1.0286174072
   12      C      -0.1524830882    -0.6053433602     1.1981681392
   13      H      -0.0840429321    -1.0603784263     2.1770524412
 ----------------------------------------------------------------

    2    -286.8244757728      1.95E-09 Convergence criterion met
 Total energy in the final basis set = -286.82447577

         TDDFT/TDA Excitation Energies
 ---------------------------------------------------

 Excited state   1: excitation energy (eV) =    2.7820
 Total energy for state  1:                  -286.72223791 au
    <S**2>     :  0.7827
    Trans. Mom.:  0.2854 X   0.1226 Y   0.2514 Z
    Strength   :     0.0108840604
    S(  1) --> V(  1) amplitude =  0.8143 alpha
    S(  1) --> V(  2) amplitude = -0.5047 alpha
    D( 24) --> S(  1) amplitude = -0.1938 beta

 Excited state   2: excitation energy (eV) =    3.0690
 Total energy for state  2:                  -286.71169051 au
    <S**2>     :  0.8068
    Trans. Mom.:  0.3076 X   0.1674 Y  -0.2689 Z
    Strength   :     0.0146595160
    S(  1) --> V(  1) amplitude =  0.5483 alpha
    S(  1) --> V(  2) amplitude =  0.7906 alpha
    D( 24) --> S(  1) amplitude =  0.2214 beta

 Excited state   3: excitation energy (eV) =    4.4656
 Total energy for state  3:                  -286.66036623 au
    <S**2>     :  1.8450
    Trans. Mom.: -0.1033 X  -0.1478 Y   0.0393 Z
    Strength   :     0.0037254159
    D( 22) --> V(  1) amplitude = -0.1848 alpha
    D( 23) --> V(  1) amplitude = -0.3533 alpha
    D( 24) --> V(  1) amplitude = -0.1897 alpha
    D( 22) --> S(  1) amplitude =  0.2886 beta
    D( 22) --> V(  1) amplitude =  0.1685 beta
    D( 23) --> S(  1) amplitude =  0.6727 beta
    D( 23) --> V(  1) amplitude =  0.2426 beta
    D( 24) --> S(  1) amplitude =  0.2712 beta

 Excited state   4: excitation energy (eV) =    4.5341
 Total energy for state  4:                  -286.65785074 au
    <S**2>     :  1.5840
    Trans. Mom.: -0.0264 X  -0.0817 Y   0.2901 Z
    Strength   :     0.0101654007
    D( 22) --> V(  1) amplitude =  0.1768 alpha
    D( 23) --> V(  1) amplitude =  0.1969 alpha
    D( 24) --> V(  1) amplitude = -0.1867 alpha
    S(  1) --> V(  2) amplitude = -0.1689 alpha
    D( 22) --> S(  1) amplitude = -0.4224 beta
    D( 22) --> V(  1) amplitude = -0.2138 beta
    D( 24) --> S(  1) amplitude =  0.7231 beta
    D( 24) --> V(  1) amplitude =  0.2441 beta

 ---------------------------------------------------

                    Orbital Energies (a.u.)
 --------------------------------------------------------------

 Alpha MOs
 -- Occupied --
-14.314 -10.224 -10.218 -10.216 -10.212 -10.209 -10.193  -0.959
 -0.836  -0.739  -0.685  -0.590  -0.575  -0.538  -0.513  -0.461
 -0.433  -0.413  -0.398  -0.367  -0.345  -0.284  -0.271  -0.264
 -0.145

 Beta MOs
 -- Occupied --
-14.313 -10.224 -10.219 -10.218 -10.210 -10.204 -10.184  -0.955
 -0.828  -0.735  -0.673  -0.586  -0.566  -0.531  -0.510  -0.453
 -0.429  -0.408  -0.396  -0.362  -0.340  -0.274  -0.261  -0.251

          Ground-State Mulliken Net Atomic Charges

     Atom                 Charge (a.u.)    Spin (a.u.)
  --------------------------------------------------------
      1 C                     0.091555       0.008806
      2 C                    -0.258907      -0.069062
      3 C                    -0.128045       0.570138
      4 C                    -0.132547      -0.216078
      5 C                    -0.028360       0.004323
      6 N                    -0.338714       0.064137
      7 H                     0.143593       0.001570
      8 H                     0.137625       0.010531
      9 H                     0.158495      -0.027815
     10 H                     0.147989       0.011850
     11 H                     0.146720       0.004265
     12 C                    -0.081372       0.664307
     13 H                     0.141968      -0.026972
  --------------------------------------------------------
  Sum of atomic charges =    -0.000000

                    Cartesian Multipole Moments
 -----------------------------------------------------------------
    Charge (ESU x 10^10)
                 0.0000
    Dipole Moment (Debye)
         X      -1.2399      Y      -2.0067      Z       0.3582
       Tot       2.3859
    Quadrupole Moments (Debye-Ang)
        XX     -37.5487     XY      -4.5761     YY     -43.3798
        XZ       1.2833     YZ       0.9187     ZZ     -40.0389

 Total job time:  92.25s(wall), 82.63s(cpu)
        *  Thank you very much for using Q-Chem.  Have a nice day.  *
