 Q-Chem 5.0, Q-Chem, Inc., Pleasanton, CA (2017)
 Q-Chem 5.0.2 for Intel X86 EM64T Linux

User input:
--------------------------------------------------------------
$molecule
0 2
C        1.5435402397    0.2843963131   -0.2906361059
C        0.6026653406   -0.9072820578   -0.0946616364
C       -0.5981292098   -0.4122887101   -0.9314621550
C       -1.0272086996    0.3759569680    0.7110384923
C       -0.4943366483    1.0262558323   -0.5655541072
N        0.9291618445    1.3875417603   -0.5187829549
H        2.6203668650    0.2486447630   -0.1332400754
H        1.0083888810   -1.9097156667   -0.2335115188
H       -1.3015195869   -0.9521954560   -1.5496156710
H       -1.9476712854    0.7261156564    1.1722617581
H       -1.1452301548    1.7636384191   -1.0286174072
C       -0.1524830882   -0.6053433602    1.1981681392
H       -0.0840429321   -1.0603784263    2.1770524412
$end

$rem
method                b3lyp
basis                 6-31+g(d,p)
unrestricted          true
symmetry              off
sym_ignore            true
incdft                false
incfock               0
scf_convergence       8
thresh                14
jobtype               freq
scf_guess             read
scf_algorithm         diis
max_scf_cycles        100
$end

--------------------------------------------------------------

             Standard Nuclear Orientation (Angstroms)
    I     Atom           X                Y                Z
 ----------------------------------------------------------------
    1      C       1.5435402397     0.2843963131    -0.2906361059
    2      C       0.6026653406    -0.9072820578    -0.0946616364
    3      C      -0.5981292098    -0.4122887101    -0.9314621550
    4      C      -1.0272086996     0.3759569680     0.7110384923
    5      C      -0.4943366483     1.0262558323    -0.5655541072
    6      N       0.9291618445     1.3875417603    -0.5187829549
    7      H       2.6203668650     0.2486447630    -0.1332400754
    8      H       1.0083888810    -1.9097156667    -0.2335115188
    9      H      -1.3015195869    -0.9521954560    -1.5496156710
   10      H      -1.9476712854     0.7261156564     1.1722617581
   11      H      -1.1452301548     1.7636384191    -1.0286174072
   12      C      -0.1524830882    -0.6053433602     1.1981681392
   13      H      -0.0840429321    -1.0603784263     2.1770524412
 ----------------------------------------------------------------

    2    -286.8475018679      1.99E-09 Convergence criterion met
 Total energy in the final basis set = -286.84750187

                    Orbital Energies (a.u.)
 --------------------------------------------------------------

 Alpha MOs
 -- Occupied --
-14.330 -10.235 -10.230 -10.228 -10.225 -10.221 -10.207  -0.973
 -0.850  -0.750  -0.696  -0.601  -0.585  -0.547  -0.522  -0.473
 -0.444  -0.425  -0.408  -0.378  -0.356  -0.296  -0.284  -0.278
 -0.158

 Beta MOs
 -- Occupied --
-14.329 -10.235 -10.231 -10.230 -10.222 -10.217 -10.197  -0.969
 -0.842  -0.747  -0.684  -0.597  -0.577  -0.541  -0.519  -0.464
 -0.441  -0.419  -0.406  -0.373  -0.351  -0.287  -0.275  -0.266

          Ground-State Mulliken Net Atomic Charges

     Atom                 Charge (a.u.)    Spin (a.u.)
  --------------------------------------------------------
      1 C                    -0.071244      -0.001751
      2 C                     0.006045      -0.101952
      3 C                    -0.199604       0.600542
      4 C                    -0.101389      -0.236411
      5 C                    -0.135653      -0.018978
      6 N                    -0.178726       0.062361
      7 H                     0.132217       0.001589
      8 H                     0.129401       0.011021
      9 H                     0.146876      -0.025598
     10 H                     0.138987       0.010755
     11 H                     0.138683       0.004558
     12 C                    -0.144221       0.720605
     13 H                     0.138627      -0.026739
  --------------------------------------------------------
  Sum of atomic charges =     0.000000

                    Cartesian Multipole Moments
 -----------------------------------------------------------------
    Charge (ESU x 10^10)
                -0.0000
    Dipole Moment (Debye)
         X      -1.3281      Y      -2.1857      Z       0.3539
       Tot       2.5819
    Quadrupole Moments (Debye-Ang)
        XX     -38.6758     XY      -5.2809     YY     -44.8639
        XZ       1.3268     YZ       0.9669     ZZ     -41.8461

 Frequency:      -668.91                 359.18                 394.58
 Force Cnst:      1.3770                 0.0917                 0.1055
 Red. Mass:       5.2234                 1.2061                 1.1506
 IR Intens:       37.529                 15.799                 30.727
 Frequency:       443.28                 481.25                 603.49
 Force Cnst:      0.3612                 0.5559                 0.9985
 Red. Mass:       3.1195                 4.0738                 4.6532
 IR Intens:       12.120                  7.568                 15.662
 Frequency:       741.49                 783.29                 829.12
 Force Cnst:      1.9634                 2.6153                 0.8792
 Red. Mass:       6.0612                 7.2347                 2.1708
 IR Intens:        3.174                  5.174                 17.286
 Frequency:       851.08                 884.24                 895.42
 Force Cnst:      1.8771                 0.9939                 0.7076
 Red. Mass:       4.3984                 2.1575                 1.4978
 IR Intens:       10.423                  8.013                  2.418
 Frequency:       913.53                 927.91                 957.35
 Force Cnst:      0.9880                 0.8081                 1.1182
 Red. Mass:       2.0094                 1.5929                 2.0706
 IR Intens:        0.547                 21.320                  2.146
 Frequency:       973.77                1026.33                1087.46
 Force Cnst:      1.1529                 1.2827                 1.1983
 Red. Mass:       2.0637                 2.0669                 1.7198
 IR Intens:        2.582                  3.480                  5.152
 Frequency:      1140.80                1177.50                1216.76
 Force Cnst:      1.2876                 1.4381                 1.3518
 Red. Mass:       1.6792                 1.7605                 1.5497
 IR Intens:       15.072                  1.763                  6.183
 Frequency:      1244.71                1276.20                1320.80
 Force Cnst:      1.4456                 1.2081                 1.5474
 Red. Mass:       1.5837                 1.2590                 1.5054
 IR Intens:        6.553                  1.027                  5.112
 Frequency:      1324.70                1412.53                1634.10
 Force Cnst:      1.7837                 3.2592                11.9025
 Red. Mass:       1.7252                 2.7725                 7.5654
 IR Intens:       17.262                  1.812                 44.607
 Frequency:      3138.85                3174.18                3175.45
 Force Cnst:      6.3279                 6.4756                 6.4969
 Red. Mass:       1.0901                 1.0909                 1.0936
 IR Intens:       17.454                 20.839                  8.301
 Frequency:      3185.23                3251.29                3265.91
 Force Cnst:      6.5329                 6.8247                 6.8851
 Red. Mass:       1.0929                 1.0958                 1.0956
 IR Intens:       19.563                  1.837                  0.413

 STANDARD THERMODYNAMIC QUANTITIES AT   298.15 K  AND     1.00 ATM

   This Molecule has  1 Imaginary Frequencies
   Zero point vibrational energy:       63.032 kcal/mol

   Atom    1 Element C  Has Mass   12.00000
   Atom    2 Element C  Has Mass   12.00000
   Atom    3 Element C  Has Mass   12.00000
   Atom    4 Element C  Has Mass   12.00000
   Atom    5 Element C  Has Mass   12.00000
   Atom    6 Element N  Has Mass   14.00307
   Atom    7 Element H  Has Mass    1.00783
   Atom    8 Element H  Has Mass    1.00783
   Atom    9 Element H  Has Mass    1.00783
   Atom   10 Element H  Has Mass    1.00783
   Atom   11 Element H  Has Mass    1.00783
   Atom   12 Element C  Has Mass   12.00000
   Atom   13 Element H  Has Mass    1.00783
   Molecular Mass:    92.050050 amu
   Principal axes and moments of inertia in amu*Bohr^2:
                             1           2           3
    Eigenvalues --      376.94460   456.78956   565.63040
          X               0.73182    -0.65164     0.19952
          Y               0.49026     0.70675     0.51005
          Z              -0.47338    -0.27544     0.83669
   Rotational Symmetry Number is   1
   The Molecule is an Asymmetric Top
   Translational Enthalpy:        0.889 kcal/mol
   Rotational Enthalpy:           0.889 kcal/mol
   Vibrational Enthalpy:         64.360 kcal/mol
   gas constant (RT):             0.592 kcal/mol
   Translational Entropy:        39.471  cal/mol.K
   Rotational Entropy:           26.079  cal/mol.K
   Vibrational Entropy:           6.099  cal/mol.K

   Total Enthalpy:               66.730 kcal/mol
   Total Entropy:                71.649  cal/mol.K

 Total job time:  573.99s(wall), 560.39s(cpu)
        *  Thank you very much for using Q-Chem.  Have a nice day.  *
