 Q-Chem 5.0, Q-Chem, Inc., Pleasanton, CA (2017)
 Q-Chem 5.0.2 for Intel X86 EM64T Linux

User input:
--------------------------------------------------------------
$molecule
0 2
C        1.5469648954    0.2847564145   -0.2937313297
C        0.6056493303   -0.9047565615   -0.0902679579
C       -0.6034098570   -0.4136589695   -0.9212938795
C       -1.0250663284    0.3812571980    0.7143127771
C       -0.4957107339    1.0268001144   -0.5671321983
N        0.9275908252    1.3859770635   -0.5269174651
H        2.6236111561    0.2510476434   -0.1413864643
H        1.0108778506   -1.9069495503   -0.2257924381
H       -1.2957135482   -0.9512251903   -1.5541219287
H       -1.9457407912    0.7291514435    1.1745493507
H       -1.1478648455    1.7619636942   -1.0295017294
C       -0.1451311523   -0.5973210889    1.2041609137
H       -0.1025552353   -1.0816961759    2.1695615486
$end

$rem
method                b3lyp
basis                 6-31+g(d,p)
unrestricted          true
symmetry              off
sym_ignore            true
incdft                false
incfock               0
scf_convergence       8
thresh                14
jobtype               sp
scf_guess             read
scf_algorithm         diis
max_scf_cycles        100
$end

--------------------------------------------------------------

             Standard Nuclear Orientation (Angstroms)
    I     Atom           X                Y                Z
 ----------------------------------------------------------------
    1      C       1.5469648954     0.2847564145    -0.2937313297
    2      C       0.6056493303    -0.9047565615    -0.0902679579
    3      C      -0.6034098570    -0.4136589695    -0.9212938795
    4      C      -1.0250663284     0.3812571980     0.7143127771
    5      C      -0.4957107339     1.0268001144    -0.5671321983
    6      N       0.9275908252     1.3859770635    -0.5269174651
    7      H       2.6236111561     0.2510476434    -0.1413864643
    8      H       1.0108778506    -1.9069495503    -0.2257924381
    9      H      -1.2957135482    -0.9512251903    -1.5541219287
   10      H      -1.9457407912     0.7291514435     1.1745493507
   11      H      -1.1478648455     1.7619636942    -1.0295017294
   12      C      -0.1451311523    -0.5973210889     1.2041609137
   13      H      -0.1025552353    -1.0816961759     2.1695615486
 ----------------------------------------------------------------

    2    -286.8475438620      4.70E-09 Convergence criterion met
 Total energy in the final basis set = -286.84754386

                    Orbital Energies (a.u.)
 --------------------------------------------------------------

 Alpha MOs
 -- Occupied --
-14.330 -10.235 -10.230 -10.229 -10.226 -10.221 -10.206  -0.972
 -0.849  -0.751  -0.696  -0.602  -0.585  -0.548  -0.522  -0.472
 -0.444  -0.424  -0.409  -0.378  -0.356  -0.296  -0.284  -0.277
 -0.157

 Beta MOs
 -- Occupied --
-14.329 -10.235 -10.231 -10.230 -10.222 -10.217 -10.197  -0.968
 -0.842  -0.747  -0.684  -0.598  -0.577  -0.541  -0.519  -0.463
 -0.441  -0.419  -0.406  -0.373  -0.351  -0.287  -0.275  -0.265

          Ground-State Mulliken Net Atomic Charges

     Atom                 Charge (a.u.)    Spin (a.u.)
  --------------------------------------------------------
      1 C                    -0.069993      -0.002349
      2 C                     0.000465      -0.101946
      3 C                    -0.198981       0.595226
      4 C                    -0.104066      -0.233069
      5 C                    -0.133479      -0.021268
      6 N                    -0.179334       0.062247
      7 H                     0.132744       0.001541
      8 H                     0.129121       0.010525
      9 H                     0.145895      -0.024362
     10 H                     0.139253       0.010263
     11 H                     0.138958       0.004300
     12 C                    -0.139699       0.727904
     13 H                     0.139118      -0.029012
  --------------------------------------------------------
  Sum of atomic charges =     0.000000

                    Cartesian Multipole Moments
 -----------------------------------------------------------------
    Charge (ESU x 10^10)
                 0.0000
    Dipole Moment (Debye)
         X      -1.3464      Y      -2.2071      Z       0.3302
       Tot       2.6064
    Quadrupole Moments (Debye-Ang)
        XX     -38.6468     XY      -5.2827     YY     -44.8116
        XZ       1.2487     YZ       0.9359     ZZ     -41.8937

 Total job time:  5.68s(wall), 12.12s(cpu)
        *  Thank you very much for using Q-Chem.  Have a nice day.  *
