 Q-Chem 5.0, Q-Chem, Inc., Pleasanton, CA (2017)
 Q-Chem 5.0.2 for Intel X86 EM64T Linux

User input:
--------------------------------------------------------------
$molecule
0 2
C        1.6117947890    0.3951288982   -0.3219744438
C        1.1658487250   -0.9028264038   -0.4862013915
C       -0.1592441427   -1.4237785371   -0.2667444033
C       -1.2527373419   -0.7279940576    0.1545735571
C       -0.2972880285    1.6090109158    0.4239104064
N        1.0092201208    1.5397803915    0.0762403830
H        2.6676951982    0.5494189770   -0.5551983310
H        1.9124451033   -1.6172534254   -0.8246965066
H       -0.2897925328   -2.4859526468   -0.4636334172
H       -2.1838017065   -1.2804957780    0.2642569394
H       -0.5869469627    2.6185050590    0.7241326668
C       -1.3152036972    0.6754147901    0.4743652031
H       -2.2819895240    1.0510418169    0.8009693376
$end

$rem
method                b3lyp
basis                 6-31g(d)
unrestricted          true
symmetry              off
sym_ignore            true
incdft                false
incfock               0
scf_convergence       8
thresh                14
jobtype               opt
scf_guess             read
scf_algorithm         diis
max_scf_cycles        100
geom_opt_tol_gradient 600
geom_opt_tol_displacement 2400
geom_opt_tol_energy   200
geom_opt_max_cycles   100
$end

--------------------------------------------------------------

    2    -286.9243503777      1.18E-09 Convergence criterion met
 Total energy in the final basis set = -286.92435038
   10    -286.9243532468      6.85E-09 Convergence criterion met
 Total energy in the final basis set = -286.92435325

             Standard Nuclear Orientation (Angstroms)
    I     Atom           X                Y                Z
 ----------------------------------------------------------------
    1      C       1.6124373087     0.3944055147    -0.3192225849
    2      C       1.1656748129    -0.9029535432    -0.4871875787
    3      C      -0.1598273385    -1.4232989498    -0.2685695819
    4      C      -1.2526515349    -0.7281948127     0.1558463525
    5      C      -0.2974935847     1.6095124602     0.4238342135
    6      N       1.0098859889     1.5389565448     0.0796782701
    7      H       2.6683823868     0.5485745670    -0.5520078379
    8      H       1.9118009305    -1.6166159669    -0.8284550290
    9      H      -0.2902827379    -2.4852697459    -0.4667695582
   10      H      -2.1825277688    -1.2820638500     0.2687893960
   11      H      -0.5884365281     2.6207304742     0.7169357618
   12      C      -1.3148369068     0.6751781400     0.4761976640
   13      H      -2.2821250280     1.0510391673     0.8009305127
 ----------------------------------------------------------------

   10    -286.9243542516      6.74E-09 Convergence criterion met
 Total energy in the final basis set = -286.92435425
 Final energy is   -286.924354251636
 **  OPTIMIZATION CONVERGED  **

                    Orbital Energies (a.u.)
 --------------------------------------------------------------

 Alpha MOs
 -- Occupied --
-14.322 -10.232 -10.232 -10.212 -10.211 -10.201 -10.201  -0.922
 -0.818  -0.784  -0.693  -0.667  -0.551  -0.537  -0.518  -0.449
 -0.439  -0.414  -0.394  -0.387  -0.349  -0.322  -0.299  -0.251
 -0.162

 Beta MOs
 -- Occupied --
-14.314 -10.233 -10.233 -10.210 -10.210 -10.196 -10.196  -0.911
 -0.809  -0.777  -0.681  -0.665  -0.546  -0.535  -0.514  -0.447
 -0.438  -0.411  -0.383  -0.373  -0.348  -0.295  -0.276  -0.241

          Ground-State Mulliken Net Atomic Charges

     Atom                 Charge (a.u.)    Spin (a.u.)
  --------------------------------------------------------
      1 C                     0.035621      -0.112867
      2 C                    -0.131731       0.347365
      3 C                    -0.111107       0.093233
      4 C                    -0.111345       0.094267
      5 C                     0.035331      -0.112391
      6 N                    -0.423250       0.386908
      7 H                     0.142615       0.003414
      8 H                     0.134391      -0.018353
      9 H                     0.141902      -0.006611
     10 H                     0.141930      -0.006663
     11 H                     0.142697       0.003390
     12 C                    -0.131384       0.346624
     13 H                     0.134330      -0.018317
  --------------------------------------------------------
  Sum of atomic charges =     0.000000

                    Cartesian Multipole Moments
 -----------------------------------------------------------------
    Charge (ESU x 10^10)
                 0.0000
    Dipole Moment (Debye)
         X      -1.2293      Y      -1.8734      Z      -0.0970
       Tot       2.2428
    Quadrupole Moments (Debye-Ang)
        XX     -37.2239     XY      -3.2527     YY     -40.2980
        XZ      -2.2453     YZ       1.4844     ZZ     -42.4753

 Total job time:  80.08s(wall), 84.44s(cpu)
        *  Thank you very much for using Q-Chem.  Have a nice day.  *
