 Q-Chem 5.0, Q-Chem, Inc., Pleasanton, CA (2017)
 Q-Chem 5.0.2 for Intel X86 EM64T Linux

User input:
--------------------------------------------------------------
$molecule
0 2
C        1.0353053643    0.1299159643    0.2728727481
C        1.0742140721   -1.1269410687   -0.5962416588
C       -0.1385695619   -1.5480539586   -0.2105008476
C       -1.2523622987    0.7510074688    0.2288016915
C       -0.4260712275    1.6744010642   -0.4344993837
N        0.8724925707    1.3843821686   -0.4545798531
H        1.8216842195    0.2198245387    1.0323659012
H        1.8223344834   -1.4967304249   -1.2894938152
H       -0.7551023046   -2.4053252598   -0.4656483834
H       -2.3296604158    0.8258562125    0.3287178283
H       -0.7818515711    2.5708697019   -0.9379095071
C       -0.3937234784   -0.3597332523    0.7356339378
H       -0.5486898519   -0.6194731548    1.7904813419
$end

$rem
method                b3lyp
basis                 6-31+g(d,p)
unrestricted          true
symmetry              off
sym_ignore            true
incdft                false
incfock               0
scf_convergence       8
thresh                14
jobtype               sp
scf_guess             core
scf_guess_mix         5
scf_algorithm         diis
max_scf_cycles        100
$end

--------------------------------------------------------------

             Standard Nuclear Orientation (Angstroms)
    I     Atom           X                Y                Z
 ----------------------------------------------------------------
    1      C       1.0353053643     0.1299159643     0.2728727481
    2      C       1.0742140721    -1.1269410687    -0.5962416588
    3      C      -0.1385695619    -1.5480539586    -0.2105008476
    4      C      -1.2523622987     0.7510074688     0.2288016915
    5      C      -0.4260712275     1.6744010642    -0.4344993837
    6      N       0.8724925707     1.3843821686    -0.4545798531
    7      H       1.8216842195     0.2198245387     1.0323659012
    8      H       1.8223344834    -1.4967304249    -1.2894938152
    9      H      -0.7551023046    -2.4053252598    -0.4656483834
   10      H      -2.3296604158     0.8258562125     0.3287178283
   11      H      -0.7818515711     2.5708697019    -0.9379095071
   12      C      -0.3937234784    -0.3597332523     0.7356339378
   13      H      -0.5486898519    -0.6194731548     1.7904813419
 ----------------------------------------------------------------

   22    -286.8969149333      8.87E-09 Convergence criterion met
 Total energy in the final basis set = -286.89691493

                    Orbital Energies (a.u.)
 --------------------------------------------------------------

 Alpha MOs
 -- Occupied --
-14.343 -10.228 -10.228 -10.219 -10.213 -10.211 -10.206  -0.956
 -0.848  -0.763  -0.675  -0.627  -0.563  -0.531  -0.524  -0.490
 -0.438  -0.412  -0.396  -0.364  -0.351  -0.332  -0.282  -0.264
 -0.214

 Beta MOs
 -- Occupied --
-14.333 -10.230 -10.228 -10.213 -10.210 -10.210 -10.205  -0.944
 -0.842  -0.745  -0.675  -0.619  -0.558  -0.528  -0.520  -0.483
 -0.430  -0.406  -0.391  -0.353  -0.344  -0.311  -0.275  -0.258

          Ground-State Mulliken Net Atomic Charges

     Atom                 Charge (a.u.)    Spin (a.u.)
  --------------------------------------------------------
      1 C                    -0.214350      -0.061529
      2 C                    -0.075572       0.047824
      3 C                    -0.157749       0.025633
      4 C                    -0.068095       0.756044
      5 C                    -0.111407      -0.255341
      6 N                    -0.176220       0.519111
      7 H                     0.148251       0.029067
      8 H                     0.130945       0.003183
      9 H                     0.127734       0.006674
     10 H                     0.136071      -0.032434
     11 H                     0.130742       0.007394
     12 C                    -0.017041      -0.073019
     13 H                     0.146691       0.027393
  --------------------------------------------------------
  Sum of atomic charges =     0.000000

                    Cartesian Multipole Moments
 -----------------------------------------------------------------
    Charge (ESU x 10^10)
                 0.0000
    Dipole Moment (Debye)
         X      -1.6875      Y      -1.3499      Z       0.9120
       Tot       2.3456
    Quadrupole Moments (Debye-Ang)
        XX     -40.1904     XY      -3.7012     YY     -42.2810
        XZ       0.9013     YZ       1.1593     ZZ     -41.8703

 Total job time:  100.61s(wall), 115.07s(cpu)
        *  Thank you very much for using Q-Chem.  Have a nice day.  *
