 Q-Chem 5.0, Q-Chem, Inc., Pleasanton, CA (2017)
 Q-Chem 5.0.2 for Intel X86 EM64T Linux

User input:
--------------------------------------------------------------
$molecule
0 2
C        1.5927980874    0.3373116769   -0.4654699911
C        1.1949131981   -0.9668224123   -0.2263173827
C       -0.1051399606   -1.4450283889    0.1707205757
C       -1.3349305159    0.7401140056    0.2899355595
C       -0.3584636629    1.6532756805   -0.0677010263
N        0.9462353619    1.5264004704   -0.4113584472
H        2.6376800823    0.4527151366   -0.7579597885
H        1.9653668003   -1.7222425638   -0.3579084832
H       -0.1963842008   -2.5211024919    0.3002092218
H       -2.3104915964    1.1633962571    0.5151080940
H       -0.6853991510    2.6941718407   -0.0817611041
C       -1.2210106484   -0.6924064405    0.3985552598
H       -2.1251737936   -1.2197827700    0.6939475121
$end

$rem
method                b3lyp
basis                 6-31+g(d,p)
unrestricted          true
symmetry              off
sym_ignore            true
incdft                false
incfock               0
scf_convergence       8
thresh                14
jobtype               sp
scf_guess             read
scf_algorithm         diis
max_scf_cycles        100
scf_final_print       1
$end

--------------------------------------------------------------

             Standard Nuclear Orientation (Angstroms)
    I     Atom           X                Y                Z
 ----------------------------------------------------------------
    1      C       1.5927980874     0.3373116769    -0.4654699911
    2      C       1.1949131981    -0.9668224123    -0.2263173827
    3      C      -0.1051399606    -1.4450283889     0.1707205757
    4      C      -1.3349305159     0.7401140056     0.2899355595
    5      C      -0.3584636629     1.6532756805    -0.0677010263
    6      N       0.9462353619     1.5264004704    -0.4113584472
    7      H       2.6376800823     0.4527151366    -0.7579597885
    8      H       1.9653668003    -1.7222425638    -0.3579084832
    9      H      -0.1963842008    -2.5211024919     0.3002092218
   10      H      -2.3104915964     1.1633962571     0.5151080940
   11      H      -0.6853991510     2.6941718407    -0.0817611041
   12      C      -1.2210106484    -0.6924064405     0.3985552598
   13      H      -2.1251737936    -1.2197827700     0.6939475121
 ----------------------------------------------------------------

    2    -286.9462072305      9.03E-10 Convergence criterion met
 Total energy in the final basis set = -286.94620723

                    Orbital Energies (a.u.)
 --------------------------------------------------------------

 Alpha MOs
 -- Occupied --
-14.337 -10.243 -10.243 -10.223 -10.222 -10.212 -10.212  -0.934
 -0.829  -0.795  -0.703  -0.678  -0.562  -0.547  -0.527  -0.458
 -0.449  -0.423  -0.405  -0.395  -0.358  -0.333  -0.310  -0.263
 -0.174

 Beta MOs
 -- Occupied --
-14.329 -10.245 -10.245 -10.222 -10.221 -10.208 -10.208  -0.923
 -0.820  -0.788  -0.692  -0.676  -0.557  -0.544  -0.524  -0.456
 -0.448  -0.420  -0.392  -0.384  -0.357  -0.307  -0.287  -0.254

          Ground-State Mulliken Net Atomic Charges

     Atom                 Charge (a.u.)    Spin (a.u.)
  --------------------------------------------------------
      1 C                    -0.235293      -0.115090
      2 C                     0.101101       0.371460
      3 C                    -0.164809       0.077027
      4 C                     0.101202       0.368962
      5 C                    -0.235086      -0.113628
      6 N                    -0.176528       0.375407
      7 H                     0.127033       0.003324
      8 H                     0.127358      -0.018723
      9 H                     0.132724      -0.006693
     10 H                     0.127369      -0.018620
     11 H                     0.126961       0.003256
     12 C                    -0.164761       0.080139
     13 H                     0.132731      -0.006823
  --------------------------------------------------------
  Sum of atomic charges =    -0.000000

                    Cartesian Multipole Moments
 -----------------------------------------------------------------
    Charge (ESU x 10^10)
                -0.0000
    Dipole Moment (Debye)
         X      -1.2349      Y      -1.9913      Z       0.5369
       Tot       2.4038
    Quadrupole Moments (Debye-Ang)
        XX     -38.1322     XY      -4.0676     YY     -41.3411
        XZ      -1.4877     YZ       0.7403     ZZ     -44.8338

 Total job time:  15.63s(wall), 12.02s(cpu)
        *  Thank you very much for using Q-Chem.  Have a nice day.  *
