 Q-Chem 5.0, Q-Chem, Inc., Pleasanton, CA (2017)
 Q-Chem 5.0.2 for Intel X86 EM64T Linux

User input:
--------------------------------------------------------------
$molecule
0 2
C        1.6117029265    0.3679457999   -0.2739782271
C        1.1066156128   -0.9800647095   -0.4560745127
C       -0.0973626003   -1.4215029354    0.0723838830
C       -1.3298079073    0.7430305669    0.3183382509
C       -0.4184394859    1.6077145139   -0.2394568423
N        0.9646162901    1.4854035000   -0.2137744126
H        2.6941716415    0.4580903122   -0.1424579055
H        1.8066880642   -1.7134742515   -0.8473709751
H       -0.2549718912   -2.5003709918    0.0796032727
H       -2.3245968292    1.1443052405    0.5116996819
H       -0.7610406504    2.5732622753   -0.6030734417
C       -1.1373059614   -0.6388582665    0.6076209740
H       -1.9392559154   -1.1571545723    1.1253157975
$end

$rem
method                b3lyp
basis                 6-31+g(d,p)
unrestricted          true
symmetry              off
sym_ignore            true
incdft                false
incfock               0
scf_convergence       8
thresh                14
jobtype               opt
scf_guess             read
scf_algorithm         diis
max_scf_cycles        100
geom_opt_max_cycles   300
$end

--------------------------------------------------------------

    2    -286.9391386143      3.92E-09 Convergence criterion met
 Total energy in the final basis set = -286.93913861
   16    -286.9411095944      4.28E-09 Convergence criterion met
 Total energy in the final basis set = -286.94110959
   16    -286.9425344991      6.08E-09 Convergence criterion met
 Total energy in the final basis set = -286.94253450
   16    -286.9436570703      9.63E-09 Convergence criterion met
 Total energy in the final basis set = -286.94365707
   16    -286.9445970151      9.67E-09 Convergence criterion met
 Total energy in the final basis set = -286.94459702
   16    -286.9453066397      7.74E-09 Convergence criterion met
 Total energy in the final basis set = -286.94530664
   16    -286.9457804737      7.36E-09 Convergence criterion met
 Total energy in the final basis set = -286.94578047
   15    -286.9460614681      9.99E-09 Convergence criterion met
 Total energy in the final basis set = -286.94606147
   15    -286.9461762524      4.66E-09 Convergence criterion met
 Total energy in the final basis set = -286.94617625
   13    -286.9461987031      9.22E-09 Convergence criterion met
 Total energy in the final basis set = -286.94619870
   13    -286.9462046752      5.52E-09 Convergence criterion met
 Total energy in the final basis set = -286.94620468
   13    -286.9462065962      5.33E-09 Convergence criterion met
 Total energy in the final basis set = -286.94620660

             Standard Nuclear Orientation (Angstroms)
    I     Atom           X                Y                Z
 ----------------------------------------------------------------
    1      C       1.5867221869     0.3348752524    -0.4701795647
    2      C       1.1888372976    -0.9692588368    -0.2310269563
    3      C      -0.1112158611    -1.4474648134     0.1660110021
    4      C      -1.3410064164     0.7376775811     0.2852259859
    5      C      -0.3645395634     1.6508392560    -0.0724105999
    6      N       0.9401594614     1.5239640459    -0.4160680208
    7      H       2.6316041818     0.4502787121    -0.7626693621
    8      H       1.9592908998    -1.7246789883    -0.3626180568
    9      H      -0.2024601013    -2.5235389164     0.2954996482
   10      H      -2.3165674969     1.1609598326     0.5103985204
   11      H      -0.6914750515     2.6917354162    -0.0864706777
   12      C      -1.2270865489    -0.6948428650     0.3938456862
   13      H      -2.1312496941    -1.2222191945     0.6892379385
 ----------------------------------------------------------------

   12    -286.9462072305      6.29E-09 Convergence criterion met
 Total energy in the final basis set = -286.94620723
 Final energy is   -286.946207230476
 **  OPTIMIZATION CONVERGED  **

                    Orbital Energies (a.u.)
 --------------------------------------------------------------

 Alpha MOs
 -- Occupied --
-14.337 -10.243 -10.243 -10.223 -10.222 -10.212 -10.212  -0.934
 -0.829  -0.795  -0.703  -0.678  -0.562  -0.547  -0.527  -0.458
 -0.449  -0.423  -0.405  -0.395  -0.358  -0.333  -0.310  -0.263
 -0.174

 Beta MOs
 -- Occupied --
-14.329 -10.245 -10.245 -10.222 -10.221 -10.208 -10.208  -0.923
 -0.820  -0.788  -0.692  -0.676  -0.557  -0.544  -0.524  -0.456
 -0.448  -0.420  -0.392  -0.384  -0.357  -0.307  -0.287  -0.254

          Ground-State Mulliken Net Atomic Charges

     Atom                 Charge (a.u.)    Spin (a.u.)
  --------------------------------------------------------
      1 C                    -0.235293      -0.115091
      2 C                     0.101101       0.371461
      3 C                    -0.164809       0.077025
      4 C                     0.101202       0.368962
      5 C                    -0.235086      -0.113628
      6 N                    -0.176528       0.375408
      7 H                     0.127032       0.003324
      8 H                     0.127358      -0.018723
      9 H                     0.132724      -0.006692
     10 H                     0.127369      -0.018620
     11 H                     0.126961       0.003256
     12 C                    -0.164761       0.080140
     13 H                     0.132731      -0.006823
  --------------------------------------------------------
  Sum of atomic charges =    -0.000000

                    Cartesian Multipole Moments
 -----------------------------------------------------------------
    Charge (ESU x 10^10)
                -0.0000
    Dipole Moment (Debye)
         X      -1.2349      Y      -1.9913      Z       0.5369
       Tot       2.4038
    Quadrupole Moments (Debye-Ang)
        XX     -38.1172     XY      -4.0525     YY     -41.3314
        XZ      -1.4851     YZ       0.7484     ZZ     -44.8388

 Total job time:  639.40s(wall), 1114.47s(cpu)
        *  Thank you very much for using Q-Chem.  Have a nice day.  *
