 Q-Chem 5.0, Q-Chem, Inc., Pleasanton, CA (2017)
 Q-Chem 5.0.2 for Intel X86 EM64T Linux

User input:
--------------------------------------------------------------
$molecule
0 2
C        1.2252999260    0.2118247311    0.1476943418
C        1.1084614968   -1.0801974352   -0.5944648057
C       -0.0665532204   -1.5211155611   -0.1377660991
C       -1.2333512686    0.7475769432    0.2735999235
C       -0.4107940738    1.6003095736   -0.5161656811
N        0.8788439760    1.3452384833   -0.5554875689
H        1.9153873663    0.3194194505    0.9875928519
H        1.7742906810   -1.4687567518   -1.3591310207
H       -0.5706724419   -2.4651449776   -0.3508299038
H       -2.1966164046    1.0989969259    0.6353599777
H       -0.7941852664    2.4698714214   -1.0456491399
C       -0.6447690665   -0.4609905740    0.7557776670
H       -1.0643284111   -0.8287057516    1.6982449993
$end

$rem
method                b3lyp
basis                 6-31+g(d,p)
unrestricted          true
symmetry              off
sym_ignore            true
incdft                false
incfock               0
scf_convergence       8
thresh                14
jobtype               rpath
scf_guess             core
scf_guess_mix         5
scf_algorithm         diis
max_scf_cycles        100
rpath_direction       1
rpath_tol_displacement 1000
rpath_max_cycles      50
geom_opt_max_cycles   300
geom_opt_hessian      read
$end

--------------------------------------------------------------

   23    -286.8682123023      7.26E-09 Convergence criterion met
 Total energy in the final basis set = -286.86821230
   23    -286.8693594275      4.36E-09 Convergence criterion met
 Total energy in the final basis set = -286.86935943
   23    -286.8693209203      4.11E-09 Convergence criterion met
 Total energy in the final basis set = -286.86932092
   23    -286.8693606639      4.48E-09 Convergence criterion met
 Total energy in the final basis set = -286.86936066
   22    -286.8724898322      5.15E-09 Convergence criterion met
 Total energy in the final basis set = -286.87248983
   22    -286.8724635026      5.70E-09 Convergence criterion met
 Total energy in the final basis set = -286.87246350
   22    -286.8724929690      4.93E-09 Convergence criterion met
 Total energy in the final basis set = -286.87249297
   23    -286.8767009237      4.75E-09 Convergence criterion met
 Total energy in the final basis set = -286.93819299
   24    -286.9388674831      5.96E-09 Convergence criterion met
 Total energy in the final basis set = -286.93886748
   23    -286.9365055049      6.11E-09 Convergence criterion met
 Total energy in the final basis set = -286.93650550
   24    -286.9389936582      4.28E-09 Convergence criterion met
 Total energy in the final basis set = -286.93899366
   23    -286.9371748100      5.77E-09 Convergence criterion met
 Total energy in the final basis set = -286.93717481
   23    -286.9391076921      7.48E-09 Convergence criterion met
 Total energy in the final basis set = -286.93910769
   24    -286.9390768412      5.34E-09 Convergence criterion met
 Total energy in the final basis set = -286.93907684
   24    -286.9391386143      4.25E-09 Convergence criterion met
 Total energy in the final basis set = -286.93913861

                    Orbital Energies (a.u.)
 --------------------------------------------------------------

 Alpha MOs
 -- Occupied --
-14.350 -10.251 -10.232 -10.224 -10.213 -10.210 -10.209  -0.945
 -0.826  -0.794  -0.694  -0.677  -0.559  -0.545  -0.524  -0.461
 -0.450  -0.432  -0.414  -0.393  -0.355  -0.325  -0.305  -0.265
 -0.172

 Beta MOs
 -- Occupied --
-14.346 -10.251 -10.228 -10.226 -10.214 -10.204 -10.203  -0.937
 -0.818  -0.787  -0.680  -0.676  -0.555  -0.541  -0.521  -0.458
 -0.447  -0.427  -0.403  -0.388  -0.349  -0.306  -0.286  -0.256

          Ground-State Mulliken Net Atomic Charges

     Atom                 Charge (a.u.)    Spin (a.u.)
  --------------------------------------------------------
      1 C                    -0.170742      -0.100120
      2 C                    -0.007350       0.478914
      3 C                    -0.136336      -0.197868
      4 C                     0.061266      -0.107246
      5 C                    -0.254102       0.327733
      6 N                    -0.137119       0.148921
      7 H                     0.132628       0.002439
      8 H                     0.130177      -0.022510
      9 H                     0.135321       0.014017
     10 H                     0.133179       0.009272
     11 H                     0.129222      -0.017432
     12 C                    -0.143105       0.489109
     13 H                     0.126962      -0.025230
  --------------------------------------------------------
  Sum of atomic charges =     0.000000

                    Cartesian Multipole Moments
 -----------------------------------------------------------------
    Charge (ESU x 10^10)
                 0.0000
    Dipole Moment (Debye)
         X      -0.7766      Y      -1.7391      Z       0.0528
       Tot       1.9054
    Quadrupole Moments (Debye-Ang)
        XX     -37.9753     XY      -3.7155     YY     -41.4345
        XZ      -1.7742     YZ      -0.4335     ZZ     -44.2690

             Standard Nuclear Orientation (Angstroms)
    I     Atom           X                Y                Z
 ----------------------------------------------------------------
    1      C       1.2252999260     0.2118247311     0.1476943418
    2      C       1.1084614968    -1.0801974352    -0.5944648057
    3      C      -0.0665532204    -1.5211155611    -0.1377660991
    4      C      -1.2333512686     0.7475769432     0.2735999235
    5      C      -0.4107940738     1.6003095736    -0.5161656811
    6      N       0.8788439760     1.3452384833    -0.5554875689
    7      H       1.9153873663     0.3194194505     0.9875928519
    8      H       1.7742906810    -1.4687567518    -1.3591310207
    9      H      -0.5706724419    -2.4651449776    -0.3508299038
   10      H      -2.1966164046     1.0989969259     0.6353599777
   11      H      -0.7941852664     2.4698714214    -1.0456491399
   12      C      -0.6447690665    -0.4609905740     0.7557776670
   13      H      -1.0643284111    -0.8287057516     1.6982449993
 ----------------------------------------------------------------

 Total job time:  23165.54s(wall), 38039.58s(cpu)
        *  Thank you very much for using Q-Chem.  Have a nice day.  *
