 Q-Chem 5.0, Q-Chem, Inc., Pleasanton, CA (2017)
 Q-Chem 5.0.2 for Intel X86 EM64T Linux

User input:
--------------------------------------------------------------
$molecule
0 2
C        1.6724632058    0.3311160337   -0.3250581421
C        1.0799246500   -0.8827735733   -0.3043633466
C       -0.3513940272   -1.0536564506   -0.0024302983
C       -1.1382218189    0.3660142204    0.1145343891
C       -0.2937296476    1.5327570016   -0.2046341556
N        0.9889836982    1.5484623459   -0.3224042151
H        2.7439088975    0.4214526934   -0.4842405892
H        1.6596517633   -1.7760802000   -0.5235045788
H       -0.8555977654   -1.9047507362   -0.4640319070
H       -2.1712900106    0.4414158576   -0.2307127162
H       -0.8220975223    2.4664347263   -0.4127188969
C       -0.8868972542   -0.5249655330    1.2503662136
H       -1.6257041688   -0.9654263854    1.9091982433
$end

$rem
method                b3lyp
basis                 6-31g(d)
unrestricted          true
symmetry              off
sym_ignore            true
incdft                false
incfock               0
scf_convergence       8
thresh                14
jobtype               opt
scf_guess             core
scf_guess_mix         5
scf_algorithm         diis
max_scf_cycles        100
geom_opt_max_cycles   300
$end

--------------------------------------------------------------

   20    -286.8549693702      7.47E-09 Convergence criterion met
 Total energy in the final basis set = -286.85496937
   16    -286.8549705745      6.49E-09 Convergence criterion met
 Total energy in the final basis set = -286.85497057

             Standard Nuclear Orientation (Angstroms)
    I     Atom           X                Y                Z
 ----------------------------------------------------------------
    1      C       1.6725126043     0.3311012349    -0.3221760064
    2      C       1.0791593678    -0.8827989388    -0.3052612501
    3      C      -0.3519489594    -1.0536759781    -0.0040982587
    4      C      -1.1389924911     0.3670509865     0.1156775950
    5      C      -0.2941946362     1.5325435947    -0.2059126981
    6      N       0.9887006993     1.5477673956    -0.3212230868
    7      H       2.7442856411     0.4217934374    -0.4783777124
    8      H       1.6580595472    -1.7760084662    -0.5270942624
    9      H      -0.8560958251    -1.9047381270    -0.4656933305
   10      H      -2.1728038602     0.4426580130    -0.2271090131
   11      H      -0.8220613849     2.4652665110    -0.4194691207
   12      C      -0.8849654229    -0.5251033444     1.2498676945
   13      H      -1.6216552800    -0.9658563180     1.9108694498
 ----------------------------------------------------------------

   16    -286.8549715340      6.51E-09 Convergence criterion met
 Total energy in the final basis set = -286.85497153
 Final energy is   -286.854971534049
 **  OPTIMIZATION CONVERGED  **

                    Orbital Energies (a.u.)
 --------------------------------------------------------------

 Alpha MOs
 -- Occupied --
-14.323 -10.230 -10.224 -10.221 -10.219 -10.206 -10.195  -0.934
 -0.868  -0.765  -0.667  -0.641  -0.570  -0.532  -0.491  -0.482
 -0.451  -0.425  -0.377  -0.373  -0.359  -0.300  -0.256  -0.229
 -0.219

 Beta MOs
 -- Occupied --
-14.323 -10.229 -10.224 -10.221 -10.207 -10.205 -10.194  -0.933
 -0.858  -0.763  -0.659  -0.639  -0.556  -0.527  -0.488  -0.473
 -0.447  -0.422  -0.375  -0.370  -0.351  -0.291  -0.250  -0.225

          Ground-State Mulliken Net Atomic Charges

     Atom                 Charge (a.u.)    Spin (a.u.)
  --------------------------------------------------------
      1 C                    -0.009348      -0.014854
      2 C                    -0.084011       0.041361
      3 C                    -0.175648      -0.016606
      4 C                    -0.194509      -0.016938
      5 C                     0.088793       0.018997
      6 N                    -0.391464       0.002669
      7 H                     0.136830       0.000777
      8 H                     0.139629       0.003602
      9 H                     0.155094       0.016899
     10 H                     0.155383       0.022622
     11 H                     0.142793       0.005878
     12 C                    -0.121302       0.958651
     13 H                     0.157759      -0.023057
  --------------------------------------------------------
  Sum of atomic charges =    -0.000000

                    Cartesian Multipole Moments
 -----------------------------------------------------------------
    Charge (ESU x 10^10)
                -0.0000
    Dipole Moment (Debye)
         X      -2.0141      Y      -1.9867      Z      -0.0852
       Tot       2.8303
    Quadrupole Moments (Debye-Ang)
        XX     -37.2522     XY      -3.0916     YY     -41.3411
        XZ      -0.6304     YZ       0.5063     ZZ     -42.3072

 Total job time:  106.57s(wall), 162.33s(cpu)
        *  Thank you very much for using Q-Chem.  Have a nice day.  *
