 Q-Chem 5.0, Q-Chem, Inc., Pleasanton, CA (2017)
 Q-Chem 5.0.2 for Intel X86 EM64T Linux

User input:
--------------------------------------------------------------
$molecule
0 2
C        0.6794932035    0.0144240190    0.2321469517
C        0.9304567703   -1.2724682887   -0.5330090826
C        0.1911154346   -2.3546395192   -0.4683022134
C       -1.2572294994    1.2143311063    0.5405674660
C       -0.3786992246    1.8184713748   -0.4713333856
N        0.7164711862    1.1710855053   -0.6827314752
H        1.5162539795    0.1560052870    0.9385112812
H        1.8165232724   -1.2402044904   -1.1777485029
H        0.1992773583   -3.3452882561   -0.9050278366
H       -2.2180095764    1.6040645940    0.8573073022
H       -0.5987792004    2.7359365341   -1.0161797555
C       -0.6297044689    0.1053717032    0.9713323152
H       -0.9671692353   -0.6070895693    1.7144669356
$end

$rem
method                b3lyp
basis                 6-31g(d)
unrestricted          true
symmetry              off
sym_ignore            true
incdft                false
incfock               0
scf_convergence       8
thresh                14
jobtype               opt
scf_guess             core
scf_guess_mix         5
scf_algorithm         diis
max_scf_cycles        100
geom_opt_max_cycles   300
$end

--------------------------------------------------------------

   22    -286.8505607175      7.61E-09 Convergence criterion met
 Total energy in the final basis set = -286.85056072
   17    -286.8505626210      4.97E-09 Convergence criterion met
 Total energy in the final basis set = -286.85056262

             Standard Nuclear Orientation (Angstroms)
    I     Atom           X                Y                Z
 ----------------------------------------------------------------
    1      C       0.6808441575     0.0151006506     0.2322293608
    2      C       0.9325926551    -1.2727626413    -0.5302896850
    3      C       0.1888426164    -2.3519263029    -0.4693615250
    4      C      -1.2566432953     1.2139634913     0.5413749376
    5      C      -0.3789763041     1.8172198812    -0.4719582098
    6      N       0.7167595671     1.1704635102    -0.6838289036
    7      H       1.5165758779     0.1585056487     0.9395297585
    8      H       1.8194787262    -1.2415461211    -1.1739735551
    9      H       0.1936371962    -3.3416482703    -0.9084886768
   10      H      -2.2182394188     1.6024930099     0.8574805075
   11      H      -0.6014685519     2.7332393121    -1.0183226923
   12      C      -0.6281811555     0.1053449036     0.9718253174
   13      H      -0.9652220709    -0.6084470720     1.7137833658
 ----------------------------------------------------------------

   17    -286.8505633380      4.99E-09 Convergence criterion met
 Total energy in the final basis set = -286.85056334
 Final energy is   -286.850563337988
 **  OPTIMIZATION CONVERGED  **

                    Orbital Energies (a.u.)
 --------------------------------------------------------------

 Alpha MOs
 -- Occupied --
-14.321 -10.227 -10.224 -10.209 -10.202 -10.201 -10.196  -0.943
 -0.790  -0.765  -0.704  -0.595  -0.556  -0.537  -0.507  -0.469
 -0.446  -0.405  -0.398  -0.370  -0.326  -0.274  -0.265  -0.254
 -0.234

 Beta MOs
 -- Occupied --
-14.321 -10.226 -10.224 -10.204 -10.201 -10.196 -10.193  -0.943
 -0.782  -0.764  -0.692  -0.587  -0.555  -0.529  -0.504  -0.458
 -0.441  -0.403  -0.397  -0.365  -0.324  -0.268  -0.261  -0.252

          Ground-State Mulliken Net Atomic Charges

     Atom                 Charge (a.u.)    Spin (a.u.)
  --------------------------------------------------------
      1 C                    -0.069589       0.042941
      2 C                    -0.103223      -0.167485
      3 C                    -0.198363       1.040319
      4 C                    -0.142432       0.000374
      5 C                     0.055861       0.004781
      6 N                    -0.377382      -0.003511
      7 H                     0.180880      -0.004329
      8 H                     0.163918       0.078644
      9 H                     0.163965       0.004917
     10 H                     0.140238       0.000133
     11 H                     0.143435      -0.000141
     12 C                    -0.110477       0.002871
     13 H                     0.153170       0.000485
  --------------------------------------------------------
  Sum of atomic charges =     0.000000

                    Cartesian Multipole Moments
 -----------------------------------------------------------------
    Charge (ESU x 10^10)
                 0.0000
    Dipole Moment (Debye)
         X      -0.9016      Y      -0.5414      Z       1.0977
       Tot       1.5202
    Quadrupole Moments (Debye-Ang)
        XX     -39.5720     XY      -4.1804     YY     -37.0809
        XZ       0.2081     YZ       1.6470     ZZ     -41.0682

 Total job time:  119.30s(wall), 170.52s(cpu)
        *  Thank you very much for using Q-Chem.  Have a nice day.  *
