 Q-Chem 5.0, Q-Chem, Inc., Pleasanton, CA (2017)
 Q-Chem 5.0.2 for Intel X86 EM64T Linux

User input:
--------------------------------------------------------------
$molecule
0 2
C        1.2274652642    0.2141256923    0.1478851555
C        1.1073307814   -1.0783012354   -0.5908401282
C       -0.0655245903   -1.5194142703   -0.1346883936
C       -1.2313776940    0.7455250258    0.2744550692
C       -0.4077062877    1.5959157053   -0.5146135987
N        0.8815308637    1.3470199665   -0.5553640183
H        1.9222449248    0.3231477270    0.9844289086
H        1.7679380223   -1.4647380794   -1.3620682358
H       -0.5698121777   -2.4632902295   -0.3523744344
H       -2.1944878513    1.1000423390    0.6348103928
H       -0.7941127689    2.4635243591   -1.0476506744
C       -0.6479132743   -0.4623301562    0.7578830170
H       -1.0745619194   -0.8329003667    1.6969124824
$end

$rem
method                b3lyp
basis                 6-31g(d)
unrestricted          true
symmetry              off
sym_ignore            true
incdft                false
incfock               0
scf_convergence       8
thresh                14
jobtype               sp
scf_guess             read
scf_algorithm         diis
max_scf_cycles        100
$end

--------------------------------------------------------------

             Standard Nuclear Orientation (Angstroms)
    I     Atom           X                Y                Z
 ----------------------------------------------------------------
    1      C       1.2274652642     0.2141256923     0.1478851555
    2      C       1.1073307814    -1.0783012354    -0.5908401282
    3      C      -0.0655245903    -1.5194142703    -0.1346883936
    4      C      -1.2313776940     0.7455250258     0.2744550692
    5      C      -0.4077062877     1.5959157053    -0.5146135987
    6      N       0.8815308637     1.3470199665    -0.5553640183
    7      H       1.9222449248     0.3231477270     0.9844289086
    8      H       1.7679380223    -1.4647380794    -1.3620682358
    9      H      -0.5698121777    -2.4632902295    -0.3523744344
   10      H      -2.1944878513     1.1000423390     0.6348103928
   11      H      -0.7941127689     2.4635243591    -1.0476506744
   12      C      -0.6479132743    -0.4623301562     0.7578830170
   13      H      -1.0745619194    -0.8329003667     1.6969124824
 ----------------------------------------------------------------

    2    -286.8452507249      5.36E-09 Convergence criterion met
 Total energy in the final basis set = -286.84525072

                    Orbital Energies (a.u.)
 --------------------------------------------------------------

 Alpha MOs
 -- Occupied --
-14.336 -10.242 -10.225 -10.201 -10.200 -10.199 -10.192  -0.948
 -0.820  -0.766  -0.666  -0.637  -0.541  -0.533  -0.515  -0.463
 -0.452  -0.411  -0.402  -0.374  -0.333  -0.310  -0.268  -0.235
 -0.182

 Beta MOs
 -- Occupied --
-14.329 -10.237 -10.225 -10.202 -10.199 -10.193 -10.192  -0.935
 -0.814  -0.755  -0.661  -0.629  -0.535  -0.529  -0.510  -0.458
 -0.445  -0.406  -0.397  -0.365  -0.318  -0.290  -0.263  -0.224

          Ground-State Mulliken Net Atomic Charges

     Atom                 Charge (a.u.)    Spin (a.u.)
  --------------------------------------------------------
      1 C                    -0.066015       0.338518
      2 C                    -0.085210      -0.034470
      3 C                    -0.090939       0.056891
      4 C                    -0.109363       0.463662
      5 C                     0.045699      -0.075980
      6 N                    -0.332981       0.329377
      7 H                     0.167077       0.009393
      8 H                     0.143666       0.004600
      9 H                     0.136992       0.026807
     10 H                     0.140880      -0.026263
     11 H                     0.143115       0.001641
     12 C                    -0.222794      -0.111316
     13 H                     0.129873       0.017139
  --------------------------------------------------------
  Sum of atomic charges =     0.000000

                    Cartesian Multipole Moments
 -----------------------------------------------------------------
    Charge (ESU x 10^10)
                 0.0000
    Dipole Moment (Debye)
         X      -0.8723      Y      -0.8924      Z       0.5964
       Tot       1.3831
    Quadrupole Moments (Debye-Ang)
        XX     -38.7930     XY      -2.8823     YY     -39.9385
        XZ       0.2667     YZ       0.9902     ZZ     -40.9191

 Total job time:  16.26s(wall), 7.16s(cpu)
        *  Thank you very much for using Q-Chem.  Have a nice day.  *
