 Q-Chem 5.0, Q-Chem, Inc., Pleasanton, CA (2017)
 Q-Chem 5.0.2 for Intel X86 EM64T Linux

User input:
--------------------------------------------------------------
$molecule
0 2
C        1.1549990629    0.1935667456    0.1901721534
C        1.0604395918   -1.1214172388   -0.5835364620
C       -0.1935764292   -1.4805453692   -0.2192340300
C       -1.2689836046    0.7693171305    0.2809451452
C       -0.4493680246    1.6973124098   -0.4456419131
N        0.8371135332    1.4088963709   -0.4724999462
H        2.0771736846    0.2875762474    0.8108946363
H        1.8625955305   -1.6149901888   -1.0889758923
H       -0.7539793843   -2.4242179901   -0.4464601753
H       -2.3413341406    0.8687130283    0.3647688511
H       -0.8109418827    2.5715526464   -0.9711179601
C       -0.5309344231   -0.3981846022    0.7371451837
H       -0.7221902211   -0.7892527125    1.7823159513
$end

$rem
method                b3lyp
basis                 6-31g(d)
unrestricted          true
symmetry              off
sym_ignore            true
incdft                false
incfock               0
scf_convergence       8
thresh                14
jobtype               sp
scf_guess             core
scf_guess_mix         5
scf_algorithm         diis
max_scf_cycles        100
$end

--------------------------------------------------------------

             Standard Nuclear Orientation (Angstroms)
    I     Atom           X                Y                Z
 ----------------------------------------------------------------
    1      C       1.1549990629     0.1935667456     0.1901721534
    2      C       1.0604395918    -1.1214172388    -0.5835364620
    3      C      -0.1935764292    -1.4805453692    -0.2192340300
    4      C      -1.2689836046     0.7693171305     0.2809451452
    5      C      -0.4493680246     1.6973124098    -0.4456419131
    6      N       0.8371135332     1.4088963709    -0.4724999462
    7      H       2.0771736846     0.2875762474     0.8108946363
    8      H       1.8625955305    -1.6149901888    -1.0889758923
    9      H      -0.7539793843    -2.4242179901    -0.4464601753
   10      H      -2.3413341406     0.8687130283     0.3647688511
   11      H      -0.8109418827     2.5715526464    -0.9711179601
   12      C      -0.5309344231    -0.3981846022     0.7371451837
   13      H      -0.7221902211    -0.7892527125     1.7823159513
 ----------------------------------------------------------------

   23    -286.8453671335      5.32E-09 Convergence criterion met
 Total energy in the final basis set = -286.84536713

                    Orbital Energies (a.u.)
 --------------------------------------------------------------

 Alpha MOs
 -- Occupied --
-14.332 -10.230 -10.223 -10.211 -10.206 -10.201 -10.194  -0.938
 -0.824  -0.759  -0.658  -0.631  -0.541  -0.524  -0.512  -0.469
 -0.427  -0.418  -0.398  -0.372  -0.331  -0.302  -0.268  -0.223
 -0.208

 Beta MOs
 -- Occupied --
-14.323 -10.230 -10.226 -10.207 -10.201 -10.200 -10.193  -0.925
 -0.818  -0.743  -0.657  -0.622  -0.536  -0.521  -0.508  -0.463
 -0.420  -0.411  -0.392  -0.360  -0.317  -0.288  -0.264  -0.218

          Ground-State Mulliken Net Atomic Charges

     Atom                 Charge (a.u.)    Spin (a.u.)
  --------------------------------------------------------
      1 C                    -0.066060       0.000420
      2 C                    -0.072651       0.024390
      3 C                    -0.098641       0.035358
      4 C                    -0.102939       0.721014
      5 C                     0.048058      -0.211430
      6 N                    -0.333608       0.456601
      7 H                     0.148413       0.028503
      8 H                     0.136423       0.002617
      9 H                     0.130991       0.006957
     10 H                     0.145071      -0.033391
     11 H                     0.148604       0.006811
     12 C                    -0.229916      -0.068026
     13 H                     0.146255       0.030177
  --------------------------------------------------------
  Sum of atomic charges =    -0.000000

                    Cartesian Multipole Moments
 -----------------------------------------------------------------
    Charge (ESU x 10^10)
                -0.0000
    Dipole Moment (Debye)
         X      -1.3195      Y      -1.1265      Z       0.6363
       Tot       1.8480
    Quadrupole Moments (Debye-Ang)
        XX     -37.9205     XY      -3.4392     YY     -40.2905
        XZ       0.6995     YZ       0.4766     ZZ     -41.6078

 Total job time:  67.93s(wall), 62.39s(cpu)
        *  Thank you very much for using Q-Chem.  Have a nice day.  *
