 Q-Chem 5.0, Q-Chem, Inc., Pleasanton, CA (2017)
 Q-Chem 5.0.2 for Intel X86 EM64T Linux

User input:
--------------------------------------------------------------
$molecule
0 2
C        1.1549990629    0.1935667456    0.1901721534
C        1.0604395918   -1.1214172388   -0.5835364620
C       -0.1935764292   -1.4805453692   -0.2192340300
C       -1.2689836046    0.7693171305    0.2809451452
C       -0.4493680246    1.6973124098   -0.4456419131
N        0.8371135332    1.4088963709   -0.4724999462
H        2.0771736846    0.2875762474    0.8108946363
H        1.8625955305   -1.6149901888   -1.0889758923
H       -0.7539793843   -2.4242179901   -0.4464601753
H       -2.3413341406    0.8687130283    0.3647688511
H       -0.8109418827    2.5715526464   -0.9711179601
C       -0.5309344231   -0.3981846022    0.7371451837
H       -0.7221902211   -0.7892527125    1.7823159513
$end

$rem
method                b3lyp
basis                 6-31g(d)
unrestricted          true
symmetry              off
sym_ignore            true
incdft                false
incfock               0
scf_convergence       8
thresh                14
jobtype               ts
scf_guess             read
scf_algorithm         diis
max_scf_cycles        100
geom_opt_max_cycles   500
geom_opt_dmax         100
geom_opt_tol_gradient 10
geom_opt_hessian      read
$end

--------------------------------------------------------------

    2    -286.8453671336      8.19E-10 Convergence criterion met
 Total energy in the final basis set = -286.84536713
   14    -286.8457267196      8.32E-09 Convergence criterion met
 Total energy in the final basis set = -286.84572672
   14    -286.8459544001      8.30E-09 Convergence criterion met
 Total energy in the final basis set = -286.84595440
   14    -286.8460679216      8.60E-09 Convergence criterion met
 Total energy in the final basis set = -286.84606792
   14    -286.8460990584      8.72E-09 Convergence criterion met
 Total energy in the final basis set = -286.84609906
   14    -286.8460674598      8.73E-09 Convergence criterion met
 Total energy in the final basis set = -286.84606746
   14    -286.8459906128      8.98E-09 Convergence criterion met
 Total energy in the final basis set = -286.84599061
   15    -286.8458823981      6.89E-09 Convergence criterion met
   15    -286.8451741887      5.28E-09 Convergence criterion met
 Total energy in the final basis set = -286.84517419
   15    -286.8452157629      5.28E-09 Convergence criterion met
 Total energy in the final basis set = -286.84521576
   15    -286.8452438618      5.11E-09 Convergence criterion met
 Total energy in the final basis set = -286.84524386
   13    -286.8452501969      8.10E-09 Convergence criterion met
 Total energy in the final basis set = -286.84525020
   11    -286.8452506172      4.42E-09 Convergence criterion met
 Total energy in the final basis set = -286.84525062
   10    -286.8452507135      6.09E-09 Convergence criterion met
 Total energy in the final basis set = -286.84525071

             Standard Nuclear Orientation (Angstroms)
    I     Atom           X                Y                Z
 ----------------------------------------------------------------
    1      C       1.2274652642     0.2141256923     0.1478851555
    2      C       1.1073307814    -1.0783012354    -0.5908401282
    3      C      -0.0655245903    -1.5194142703    -0.1346883936
    4      C      -1.2313776940     0.7455250258     0.2744550692
    5      C      -0.4077062877     1.5959157053    -0.5146135987
    6      N       0.8815308637     1.3470199665    -0.5553640183
    7      H       1.9222449248     0.3231477270     0.9844289086
    8      H       1.7679380223    -1.4647380794    -1.3620682358
    9      H      -0.5698121777    -2.4632902295    -0.3523744344
   10      H      -2.1944878513     1.1000423390     0.6348103928
   11      H      -0.7941127689     2.4635243591    -1.0476506744
   12      C      -0.6479132743    -0.4623301562     0.7578830170
   13      H      -1.0745619194    -0.8329003667     1.6969124824
 ----------------------------------------------------------------

    8    -286.8452507249      8.27E-09 Convergence criterion met
 Total energy in the final basis set = -286.84525072
 Final energy is   -286.845250724930
 **  OPTIMIZATION CONVERGED  **

                    Orbital Energies (a.u.)
 --------------------------------------------------------------

 Alpha MOs
 -- Occupied --
-14.336 -10.242 -10.225 -10.201 -10.200 -10.199 -10.192  -0.948
 -0.820  -0.766  -0.666  -0.637  -0.541  -0.533  -0.515  -0.463
 -0.452  -0.411  -0.402  -0.374  -0.333  -0.310  -0.268  -0.235
 -0.182

 Beta MOs
 -- Occupied --
-14.329 -10.237 -10.225 -10.202 -10.199 -10.193 -10.192  -0.935
 -0.814  -0.755  -0.661  -0.629  -0.535  -0.529  -0.510  -0.458
 -0.445  -0.406  -0.397  -0.365  -0.318  -0.290  -0.263  -0.224

          Ground-State Mulliken Net Atomic Charges

     Atom                 Charge (a.u.)    Spin (a.u.)
  --------------------------------------------------------
      1 C                    -0.066015       0.338519
      2 C                    -0.085210      -0.034470
      3 C                    -0.090939       0.056891
      4 C                    -0.109363       0.463662
      5 C                     0.045699      -0.075979
      6 N                    -0.332981       0.329376
      7 H                     0.167077       0.009392
      8 H                     0.143666       0.004600
      9 H                     0.136992       0.026807
     10 H                     0.140880      -0.026263
     11 H                     0.143115       0.001641
     12 C                    -0.222794      -0.111316
     13 H                     0.129873       0.017139
  --------------------------------------------------------
  Sum of atomic charges =     0.000000

                    Cartesian Multipole Moments
 -----------------------------------------------------------------
    Charge (ESU x 10^10)
                 0.0000
    Dipole Moment (Debye)
         X      -0.8723      Y      -0.8924      Z       0.5964
       Tot       1.3831
    Quadrupole Moments (Debye-Ang)
        XX     -38.7930     XY      -2.8823     YY     -39.9385
        XZ       0.2667     YZ       0.9902     ZZ     -40.9191

 Total job time:  1117.27s(wall), 1105.63s(cpu)
        *  Thank you very much for using Q-Chem.  Have a nice day.  *
