 Q-Chem 5.0, Q-Chem, Inc., Pleasanton, CA (2017)
 Q-Chem 5.0.2 for Intel X86 EM64T Linux

User input:
--------------------------------------------------------------
$molecule
0 2
C        1.2252999260    0.2118247311    0.1476943418
C        1.1084614968   -1.0801974352   -0.5944648057
C       -0.0665532204   -1.5211155611   -0.1377660991
C       -1.2333512686    0.7475769432    0.2735999235
C       -0.4107940738    1.6003095736   -0.5161656811
N        0.8788439760    1.3452384833   -0.5554875689
H        1.9153873663    0.3194194505    0.9875928519
H        1.7742906810   -1.4687567518   -1.3591310207
H       -0.5706724419   -2.4651449776   -0.3508299038
H       -2.1966164046    1.0989969259    0.6353599777
H       -0.7941852664    2.4698714214   -1.0456491399
C       -0.6447690665   -0.4609905740    0.7557776670
H       -1.0643284111   -0.8287057516    1.6982449993
$end

$rem
method                b3lyp
basis                 6-31+g(d,p)
unrestricted          true
symmetry              off
sym_ignore            true
incdft                false
incfock               0
scf_convergence       8
thresh                14
jobtype               freq
scf_guess             read
scf_algorithm         diis
max_scf_cycles        100
$end

--------------------------------------------------------------

             Standard Nuclear Orientation (Angstroms)
    I     Atom           X                Y                Z
 ----------------------------------------------------------------
    1      C       1.2252999260     0.2118247311     0.1476943418
    2      C       1.1084614968    -1.0801974352    -0.5944648057
    3      C      -0.0665532204    -1.5211155611    -0.1377660991
    4      C      -1.2333512686     0.7475769432     0.2735999235
    5      C      -0.4107940738     1.6003095736    -0.5161656811
    6      N       0.8788439760     1.3452384833    -0.5554875689
    7      H       1.9153873663     0.3194194505     0.9875928519
    8      H       1.7742906810    -1.4687567518    -1.3591310207
    9      H      -0.5706724419    -2.4651449776    -0.3508299038
   10      H      -2.1966164046     1.0989969259     0.6353599777
   11      H      -0.7941852664     2.4698714214    -1.0456491399
   12      C      -0.6447690665    -0.4609905740     0.7557776670
   13      H      -1.0643284111    -0.8287057516     1.6982449993
 ----------------------------------------------------------------

    2    -286.8682123023      1.24E-09 Convergence criterion met
 Total energy in the final basis set = -286.86821230

                    Orbital Energies (a.u.)
 --------------------------------------------------------------

 Alpha MOs
 -- Occupied --
-14.352 -10.254 -10.237 -10.213 -10.212 -10.212 -10.204  -0.961
 -0.832  -0.778  -0.677  -0.647  -0.551  -0.543  -0.525  -0.474
 -0.462  -0.422  -0.413  -0.384  -0.344  -0.322  -0.280  -0.248
 -0.195

 Beta MOs
 -- Occupied --
-14.345 -10.249 -10.237 -10.214 -10.211 -10.206 -10.205  -0.949
 -0.827  -0.767  -0.672  -0.640  -0.545  -0.539  -0.519  -0.468
 -0.455  -0.417  -0.408  -0.375  -0.329  -0.302  -0.275  -0.237

          Ground-State Mulliken Net Atomic Charges

     Atom                 Charge (a.u.)    Spin (a.u.)
  --------------------------------------------------------
      1 C                    -0.153769       0.353936
      2 C                    -0.114908      -0.049527
      3 C                    -0.037876       0.043476
      4 C                    -0.029103       0.507457
      5 C                    -0.197580      -0.102949
      6 N                    -0.141591       0.323310
      7 H                     0.158555       0.012495
      8 H                     0.138352       0.004217
      9 H                     0.133138       0.025791
     10 H                     0.137092      -0.026292
     11 H                     0.131235       0.001949
     12 C                    -0.147485      -0.110396
     13 H                     0.123939       0.016533
  --------------------------------------------------------
  Sum of atomic charges =    -0.000000

                    Cartesian Multipole Moments
 -----------------------------------------------------------------
    Charge (ESU x 10^10)
                 0.0000
    Dipole Moment (Debye)
         X      -0.9745      Y      -0.9342      Z       0.7250
       Tot       1.5323
    Quadrupole Moments (Debye-Ang)
        XX     -40.2786     XY      -3.2001     YY     -41.2698
        XZ       0.2839     YZ       1.0697     ZZ     -42.4895

 Frequency:      -619.49                 237.50                 304.92
 Force Cnst:      0.9169                 0.0951                 0.1686
 Red. Mass:       4.0552                 2.8623                 3.0779
 IR Intens:       16.807                  0.963                  6.661
 Frequency:       443.08                 530.70                 570.97
 Force Cnst:      0.3201                 0.4406                 0.7250
 Red. Mass:       2.7670                 2.6552                 3.7747
 IR Intens:        5.166                  7.508                 12.737
 Frequency:       685.09                 719.67                 760.29
 Force Cnst:      0.4630                 0.4917                 0.5563
 Red. Mass:       1.6741                 1.6112                 1.6334
 IR Intens:       14.107                 43.764                 65.699
 Frequency:       830.84                 866.32                 902.27
 Force Cnst:      1.0164                 1.0848                 0.9348
 Red. Mass:       2.4991                 2.4532                 1.9489
 IR Intens:        5.380                  4.396                 27.166
 Frequency:       939.13                 953.47                 986.82
 Force Cnst:      0.7262                 0.9633                 1.1673
 Red. Mass:       1.3975                 1.7984                 2.0345
 IR Intens:        4.903                  2.149                  2.078
 Frequency:      1021.17                1056.01                1103.80
 Force Cnst:      1.7343                 1.2158                 1.1137
 Red. Mass:       2.8228                 1.8505                 1.5514
 IR Intens:       18.042                  4.140                 23.532
 Frequency:      1113.71                1170.14                1290.36
 Force Cnst:      0.9386                 1.0671                 1.3177
 Red. Mass:       1.2844                 1.3228                 1.3432
 IR Intens:        8.186                  0.211                  0.447
 Frequency:      1342.73                1360.10                1386.50
 Force Cnst:      1.8845                 2.1205                 2.6397
 Red. Mass:       1.7741                 1.9456                 2.3306
 IR Intens:       28.702                  7.156                  9.666
 Frequency:      1434.00                1499.15                1666.13
 Force Cnst:      3.5136                 5.0828                 9.8140
 Red. Mass:       2.9001                 3.8385                 6.0004
 IR Intens:       25.927                  4.088                  9.294
 Frequency:      3080.44                3121.52                3137.40
 Force Cnst:      6.0584                 6.2356                 6.3181
 Red. Mass:       1.0836                 1.0862                 1.0894
 IR Intens:       24.368                  9.821                 28.121
 Frequency:      3176.50                3193.10                3210.01
 Force Cnst:      6.4617                 6.5761                 6.6897
 Red. Mass:       1.0869                 1.0947                 1.1019
 IR Intens:        7.647                 27.477                 18.523

 STANDARD THERMODYNAMIC QUANTITIES AT   298.15 K  AND     1.00 ATM

   This Molecule has  1 Imaginary Frequencies
   Zero point vibrational energy:       63.035 kcal/mol

   Atom    1 Element C  Has Mass   12.00000
   Atom    2 Element C  Has Mass   12.00000
   Atom    3 Element C  Has Mass   12.00000
   Atom    4 Element C  Has Mass   12.00000
   Atom    5 Element C  Has Mass   12.00000
   Atom    6 Element N  Has Mass   14.00307
   Atom    7 Element H  Has Mass    1.00783
   Atom    8 Element H  Has Mass    1.00783
   Atom    9 Element H  Has Mass    1.00783
   Atom   10 Element H  Has Mass    1.00783
   Atom   11 Element H  Has Mass    1.00783
   Atom   12 Element C  Has Mass   12.00000
   Atom   13 Element H  Has Mass    1.00783
   Molecular Mass:    92.050050 amu
   Principal axes and moments of inertia in amu*Bohr^2:
                             1           2           3
    Eigenvalues --      369.17380   515.55160   762.42138
          X              -0.28254     0.89586     0.34295
          Y               0.95841     0.24863     0.14011
          Z              -0.04025    -0.36827     0.92885
   Rotational Symmetry Number is   1
   The Molecule is an Asymmetric Top
   Translational Enthalpy:        0.889 kcal/mol
   Rotational Enthalpy:           0.889 kcal/mol
   Vibrational Enthalpy:         64.527 kcal/mol
   gas constant (RT):             0.592 kcal/mol
   Translational Entropy:        39.471  cal/mol.K
   Rotational Entropy:           26.475  cal/mol.K
   Vibrational Entropy:           7.231  cal/mol.K

   Total Enthalpy:               66.897 kcal/mol
   Total Entropy:                73.177  cal/mol.K

 Total job time:  658.16s(wall), 557.54s(cpu)
        *  Thank you very much for using Q-Chem.  Have a nice day.  *
