 Q-Chem 5.0, Q-Chem, Inc., Pleasanton, CA (2017)
 Q-Chem 5.0.2 for Intel X86 EM64T Linux

User input:
--------------------------------------------------------------
$molecule
0 2
C        1.2274652642    0.2141256923    0.1478851555
C        1.1073307814   -1.0783012354   -0.5908401282
C       -0.0655245903   -1.5194142703   -0.1346883936
C       -1.2313776940    0.7455250258    0.2744550692
C       -0.4077062877    1.5959157053   -0.5146135987
N        0.8815308637    1.3470199665   -0.5553640183
H        1.9222449248    0.3231477270    0.9844289086
H        1.7679380223   -1.4647380794   -1.3620682358
H       -0.5698121777   -2.4632902295   -0.3523744344
H       -2.1944878513    1.1000423390    0.6348103928
H       -0.7941127689    2.4635243591   -1.0476506744
C       -0.6479132743   -0.4623301562    0.7578830170
H       -1.0745619194   -0.8329003667    1.6969124824
$end

$rem
method                b3lyp
basis                 6-31+g(d,p)
unrestricted          true
symmetry              off
sym_ignore            true
incdft                false
incfock               0
scf_convergence       6
thresh                14
jobtype               sp
scf_guess             read
scf_algorithm         diis
max_scf_cycles        100
stability_analysis    true
max_cis_cycles        100
cis_n_roots           4
$end

--------------------------------------------------------------

             Standard Nuclear Orientation (Angstroms)
    I     Atom           X                Y                Z
 ----------------------------------------------------------------
    1      C       1.2274652642     0.2141256923     0.1478851555
    2      C       1.1073307814    -1.0783012354    -0.5908401282
    3      C      -0.0655245903    -1.5194142703    -0.1346883936
    4      C      -1.2313776940     0.7455250258     0.2744550692
    5      C      -0.4077062877     1.5959157053    -0.5146135987
    6      N       0.8815308637     1.3470199665    -0.5553640183
    7      H       1.9222449248     0.3231477270     0.9844289086
    8      H       1.7679380223    -1.4647380794    -1.3620682358
    9      H      -0.5698121777    -2.4632902295    -0.3523744344
   10      H      -2.1944878513     1.1000423390     0.6348103928
   11      H      -0.7941127689     2.4635243591    -1.0476506744
   12      C      -0.6479132743    -0.4623301562     0.7578830170
   13      H      -1.0745619194    -0.8329003667     1.6969124824
 ----------------------------------------------------------------

    2    -286.8681929976      4.54E-09 Convergence criterion met
 Total energy in the final basis set = -286.86819300

         TDDFT/TDA Excitation Energies
 ---------------------------------------------------

 Excited state   1: excitation energy (eV) =    2.1453
 Total energy for state  1:                  -286.78935434 au
    <S**2>     :  0.7873
    Trans. Mom.: -0.2239 X   0.2388 Y  -0.0085 Z
    Strength   :     0.0056378959
    D( 24) --> S(  1) amplitude =  0.9696 beta

 Excited state   2: excitation energy (eV) =    3.1023
 Total energy for state  2:                  -286.75418425 au
    <S**2>     :  0.8895
    Trans. Mom.:  0.2762 X  -0.0914 Y   0.0075 Z
    Strength   :     0.0064375845
    S(  1) --> V(  1) amplitude =  0.8033 alpha
    S(  1) --> V(  2) amplitude = -0.1768 alpha
    D( 22) --> S(  1) amplitude = -0.2317 beta
    D( 23) --> S(  1) amplitude =  0.4242 beta

 Excited state   3: excitation energy (eV) =    3.3593
 Total energy for state  3:                  -286.74474013 au
    <S**2>     :  0.8944
    Trans. Mom.: -0.0716 X  -0.0045 Y  -0.0567 Z
    Strength   :     0.0006884684
    S(  1) --> V(  1) amplitude = -0.4283 alpha
    D( 23) --> S(  1) amplitude =  0.8664 beta

 Excited state   4: excitation energy (eV) =    3.7896
 Total energy for state  4:                  -286.72892740 au
    <S**2>     :  0.8661
    Trans. Mom.: -0.0575 X  -0.0635 Y  -0.0489 Z
    Strength   :     0.0009033845
    S(  1) --> V(  1) amplitude =  0.2137 alpha
    S(  1) --> V(  2) amplitude =  0.7641 alpha
    D( 22) --> S(  1) amplitude =  0.5267 beta
    D( 23) --> S(  1) amplitude =  0.1823 beta

 ---------------------------------------------------

                    Orbital Energies (a.u.)
 --------------------------------------------------------------

 Alpha MOs
 -- Occupied --
-14.352 -10.254 -10.236 -10.213 -10.212 -10.211 -10.204  -0.962
 -0.833  -0.778  -0.677  -0.648  -0.551  -0.543  -0.525  -0.474
 -0.462  -0.423  -0.413  -0.384  -0.344  -0.322  -0.280  -0.248
 -0.195

 Beta MOs
 -- Occupied --
-14.345 -10.249 -10.237 -10.214 -10.211 -10.205 -10.204  -0.949
 -0.827  -0.767  -0.672  -0.640  -0.544  -0.539  -0.520  -0.468
 -0.456  -0.417  -0.408  -0.375  -0.329  -0.302  -0.275  -0.238

          Ground-State Mulliken Net Atomic Charges

     Atom                 Charge (a.u.)    Spin (a.u.)
  --------------------------------------------------------
      1 C                    -0.155428       0.367617
      2 C                    -0.113489      -0.052498
      3 C                    -0.038532       0.044108
      4 C                    -0.028987       0.499025
      5 C                    -0.199842      -0.098092
      6 N                    -0.141029       0.316600
      7 H                     0.158032       0.011819
      8 H                     0.138394       0.004557
      9 H                     0.133375       0.026026
     10 H                     0.137192      -0.025982
     11 H                     0.130712       0.001642
     12 C                    -0.143950      -0.111322
     13 H                     0.123554       0.016499
  --------------------------------------------------------
  Sum of atomic charges =     0.000000

                    Cartesian Multipole Moments
 -----------------------------------------------------------------
    Charge (ESU x 10^10)
                 0.0000
    Dipole Moment (Debye)
         X      -0.9774      Y      -0.9414      Z       0.7096
       Tot       1.5314
    Quadrupole Moments (Debye-Ang)
        XX     -40.2789     XY      -3.1659     YY     -41.3151
        XZ       0.2731     YZ       1.0850     ZZ     -42.4817

 Total job time:  311.31s(wall), 199.76s(cpu)
        *  Thank you very much for using Q-Chem.  Have a nice day.  *
