 Q-Chem 5.0, Q-Chem, Inc., Pleasanton, CA (2017)
 Q-Chem 5.0.2 for Intel X86 EM64T Linux

User input:
--------------------------------------------------------------
$molecule
0 2
C        1.2274652642    0.2141256923    0.1478851555
C        1.1073307814   -1.0783012354   -0.5908401282
C       -0.0655245903   -1.5194142703   -0.1346883936
C       -1.2313776940    0.7455250258    0.2744550692
C       -0.4077062877    1.5959157053   -0.5146135987
N        0.8815308637    1.3470199665   -0.5553640183
H        1.9222449248    0.3231477270    0.9844289086
H        1.7679380223   -1.4647380794   -1.3620682358
H       -0.5698121777   -2.4632902295   -0.3523744344
H       -2.1944878513    1.1000423390    0.6348103928
H       -0.7941127689    2.4635243591   -1.0476506744
C       -0.6479132743   -0.4623301562    0.7578830170
H       -1.0745619194   -0.8329003667    1.6969124824
$end

$rem
method                b3lyp
basis                 6-31+g(d,p)
unrestricted          true
symmetry              off
sym_ignore            true
incdft                false
incfock               0
scf_convergence       8
thresh                14
jobtype               ts
scf_guess             read
scf_algorithm         diis
max_scf_cycles        100
geom_opt_max_cycles   500
geom_opt_dmax         100
geom_opt_tol_gradient 10
geom_opt_hessian      read
$end

--------------------------------------------------------------

    2    -286.8681929976      9.53E-10 Convergence criterion met
 Total energy in the final basis set = -286.86819300
   13    -286.8682122987      9.52E-09 Convergence criterion met
 Total energy in the final basis set = -286.86821230

             Standard Nuclear Orientation (Angstroms)
    I     Atom           X                Y                Z
 ----------------------------------------------------------------
    1      C       1.2252999260     0.2118247311     0.1476943418
    2      C       1.1084614968    -1.0801974352    -0.5944648057
    3      C      -0.0665532204    -1.5211155611    -0.1377660991
    4      C      -1.2333512686     0.7475769432     0.2735999235
    5      C      -0.4107940738     1.6003095736    -0.5161656811
    6      N       0.8788439760     1.3452384833    -0.5554875689
    7      H       1.9153873663     0.3194194505     0.9875928519
    8      H       1.7742906810    -1.4687567518    -1.3591310207
    9      H      -0.5706724419    -2.4651449776    -0.3508299038
   10      H      -2.1966164046     1.0989969259     0.6353599777
   11      H      -0.7941852664     2.4698714214    -1.0456491399
   12      C      -0.6447690665    -0.4609905740     0.7557776670
   13      H      -1.0643284111    -0.8287057516     1.6982449993
 ----------------------------------------------------------------

    8    -286.8682123023      3.93E-09 Convergence criterion met
 Total energy in the final basis set = -286.86821230
 Final energy is   -286.868212302305
 **  OPTIMIZATION CONVERGED  **

                    Orbital Energies (a.u.)
 --------------------------------------------------------------

 Alpha MOs
 -- Occupied --
-14.352 -10.254 -10.237 -10.213 -10.212 -10.212 -10.204  -0.961
 -0.832  -0.778  -0.677  -0.647  -0.551  -0.543  -0.525  -0.474
 -0.462  -0.422  -0.413  -0.384  -0.344  -0.322  -0.280  -0.248
 -0.195

 Beta MOs
 -- Occupied --
-14.345 -10.249 -10.237 -10.214 -10.211 -10.206 -10.205  -0.949
 -0.827  -0.767  -0.672  -0.640  -0.545  -0.539  -0.519  -0.468
 -0.455  -0.417  -0.408  -0.375  -0.329  -0.302  -0.275  -0.237

          Ground-State Mulliken Net Atomic Charges

     Atom                 Charge (a.u.)    Spin (a.u.)
  --------------------------------------------------------
      1 C                    -0.153769       0.353936
      2 C                    -0.114908      -0.049526
      3 C                    -0.037876       0.043476
      4 C                    -0.029103       0.507454
      5 C                    -0.197580      -0.102946
      6 N                    -0.141591       0.323308
      7 H                     0.158555       0.012495
      8 H                     0.138352       0.004217
      9 H                     0.133138       0.025792
     10 H                     0.137092      -0.026292
     11 H                     0.131235       0.001949
     12 C                    -0.147485      -0.110393
     13 H                     0.123939       0.016533
  --------------------------------------------------------
  Sum of atomic charges =    -0.000000

                    Cartesian Multipole Moments
 -----------------------------------------------------------------
    Charge (ESU x 10^10)
                -0.0000
    Dipole Moment (Debye)
         X      -0.9745      Y      -0.9342      Z       0.7250
       Tot       1.5323
    Quadrupole Moments (Debye-Ang)
        XX     -40.2786     XY      -3.2001     YY     -41.2698
        XZ       0.2839     YZ       1.0697     ZZ     -42.4895

 Total job time:  116.13s(wall), 173.57s(cpu)
        *  Thank you very much for using Q-Chem.  Have a nice day.  *
