 Q-Chem 5.0, Q-Chem, Inc., Pleasanton, CA (2017)
 Q-Chem 5.0.2 for Intel X86 EM64T Linux

User input:
--------------------------------------------------------------
$molecule
0 2
C        1.2252999260    0.2118247311    0.1476943418
C        1.1084614968   -1.0801974352   -0.5944648057
C       -0.0665532204   -1.5211155611   -0.1377660991
C       -1.2333512686    0.7475769432    0.2735999235
C       -0.4107940738    1.6003095736   -0.5161656811
N        0.8788439760    1.3452384833   -0.5554875689
H        1.9153873663    0.3194194505    0.9875928519
H        1.7742906810   -1.4687567518   -1.3591310207
H       -0.5706724419   -2.4651449776   -0.3508299038
H       -2.1966164046    1.0989969259    0.6353599777
H       -0.7941852664    2.4698714214   -1.0456491399
C       -0.6447690665   -0.4609905740    0.7557776670
H       -1.0643284111   -0.8287057516    1.6982449993
$end

$rem
method                b3lyp
basis                 6-31+g(d,p)
unrestricted          true
symmetry              off
sym_ignore            true
incdft                false
incfock               0
scf_convergence       8
thresh                14
jobtype               sp
scf_guess             read
scf_algorithm         diis
max_scf_cycles        100
$end

--------------------------------------------------------------

             Standard Nuclear Orientation (Angstroms)
    I     Atom           X                Y                Z
 ----------------------------------------------------------------
    1      C       1.2252999260     0.2118247311     0.1476943418
    2      C       1.1084614968    -1.0801974352    -0.5944648057
    3      C      -0.0665532204    -1.5211155611    -0.1377660991
    4      C      -1.2333512686     0.7475769432     0.2735999235
    5      C      -0.4107940738     1.6003095736    -0.5161656811
    6      N       0.8788439760     1.3452384833    -0.5554875689
    7      H       1.9153873663     0.3194194505     0.9875928519
    8      H       1.7742906810    -1.4687567518    -1.3591310207
    9      H      -0.5706724419    -2.4651449776    -0.3508299038
   10      H      -2.1966164046     1.0989969259     0.6353599777
   11      H      -0.7941852664     2.4698714214    -1.0456491399
   12      C      -0.6447690665    -0.4609905740     0.7557776670
   13      H      -1.0643284111    -0.8287057516     1.6982449993
 ----------------------------------------------------------------

    2    -286.8682123023      4.68E-09 Convergence criterion met
 Total energy in the final basis set = -286.86821230

                    Orbital Energies (a.u.)
 --------------------------------------------------------------

 Alpha MOs
 -- Occupied --
-14.352 -10.254 -10.237 -10.213 -10.212 -10.212 -10.204  -0.961
 -0.832  -0.778  -0.677  -0.647  -0.551  -0.543  -0.525  -0.474
 -0.462  -0.422  -0.413  -0.384  -0.344  -0.322  -0.280  -0.248
 -0.195

 Beta MOs
 -- Occupied --
-14.345 -10.249 -10.237 -10.214 -10.211 -10.206 -10.205  -0.949
 -0.827  -0.767  -0.672  -0.640  -0.545  -0.539  -0.519  -0.468
 -0.455  -0.417  -0.408  -0.375  -0.329  -0.302  -0.275  -0.237

          Ground-State Mulliken Net Atomic Charges

     Atom                 Charge (a.u.)    Spin (a.u.)
  --------------------------------------------------------
      1 C                    -0.153769       0.353936
      2 C                    -0.114907      -0.049527
      3 C                    -0.037876       0.043476
      4 C                    -0.029103       0.507456
      5 C                    -0.197580      -0.102948
      6 N                    -0.141591       0.323309
      7 H                     0.158555       0.012495
      8 H                     0.138352       0.004217
      9 H                     0.133138       0.025791
     10 H                     0.137092      -0.026292
     11 H                     0.131235       0.001949
     12 C                    -0.147485      -0.110395
     13 H                     0.123939       0.016533
  --------------------------------------------------------
  Sum of atomic charges =    -0.000000

                    Cartesian Multipole Moments
 -----------------------------------------------------------------
    Charge (ESU x 10^10)
                 0.0000
    Dipole Moment (Debye)
         X      -0.9745      Y      -0.9342      Z       0.7250
       Tot       1.5323
    Quadrupole Moments (Debye-Ang)
        XX     -40.2786     XY      -3.2001     YY     -41.2698
        XZ       0.2839     YZ       1.0697     ZZ     -42.4895

 Total job time:  16.55s(wall), 12.63s(cpu)
        *  Thank you very much for using Q-Chem.  Have a nice day.  *
