 Q-Chem 5.0, Q-Chem, Inc., Pleasanton, CA (2017)
 Q-Chem 5.0.2 for Intel X86 EM64T Linux

User input:
--------------------------------------------------------------
$molecule
0 2
C        1.1549990629    0.1935667456    0.1901721534
C        1.0604395918   -1.1214172388   -0.5835364620
C       -0.1935764292   -1.4805453692   -0.2192340300
C       -1.2689836046    0.7693171305    0.2809451452
C       -0.4493680246    1.6973124098   -0.4456419131
N        0.8371135332    1.4088963709   -0.4724999462
H        2.0771736846    0.2875762474    0.8108946363
H        1.8625955305   -1.6149901888   -1.0889758923
H       -0.7539793843   -2.4242179901   -0.4464601753
H       -2.3413341406    0.8687130283    0.3647688511
H       -0.8109418827    2.5715526464   -0.9711179601
C       -0.5309344231   -0.3981846022    0.7371451837
H       -0.7221902211   -0.7892527125    1.7823159513
$end

$rem
method                b3lyp
basis                 6-31g(d)
unrestricted          true
symmetry              off
sym_ignore            true
incdft                false
incfock               0
scf_convergence       8
thresh                14
jobtype               freq
scf_guess             read
scf_algorithm         diis
max_scf_cycles        100
$end

--------------------------------------------------------------

             Standard Nuclear Orientation (Angstroms)
    I     Atom           X                Y                Z
 ----------------------------------------------------------------
    1      C       1.1549990629     0.1935667456     0.1901721534
    2      C       1.0604395918    -1.1214172388    -0.5835364620
    3      C      -0.1935764292    -1.4805453692    -0.2192340300
    4      C      -1.2689836046     0.7693171305     0.2809451452
    5      C      -0.4493680246     1.6973124098    -0.4456419131
    6      N       0.8371135332     1.4088963709    -0.4724999462
    7      H       2.0771736846     0.2875762474     0.8108946363
    8      H       1.8625955305    -1.6149901888    -1.0889758923
    9      H      -0.7539793843    -2.4242179901    -0.4464601753
   10      H      -2.3413341406     0.8687130283     0.3647688511
   11      H      -0.8109418827     2.5715526464    -0.9711179601
   12      C      -0.5309344231    -0.3981846022     0.7371451837
   13      H      -0.7221902211    -0.7892527125     1.7823159513
 ----------------------------------------------------------------

    2    -286.8453671337      1.96E-09 Convergence criterion met
 Total energy in the final basis set = -286.84536713

                    Orbital Energies (a.u.)
 --------------------------------------------------------------

 Alpha MOs
 -- Occupied --
-14.332 -10.230 -10.223 -10.211 -10.206 -10.201 -10.194  -0.938
 -0.824  -0.759  -0.658  -0.631  -0.541  -0.524  -0.512  -0.469
 -0.427  -0.418  -0.398  -0.372  -0.331  -0.302  -0.268  -0.223
 -0.208

 Beta MOs
 -- Occupied --
-14.323 -10.230 -10.226 -10.207 -10.201 -10.200 -10.193  -0.925
 -0.818  -0.743  -0.657  -0.622  -0.536  -0.521  -0.508  -0.463
 -0.420  -0.411  -0.392  -0.360  -0.317  -0.288  -0.264  -0.218

          Ground-State Mulliken Net Atomic Charges

     Atom                 Charge (a.u.)    Spin (a.u.)
  --------------------------------------------------------
      1 C                    -0.066060       0.000422
      2 C                    -0.072651       0.024380
      3 C                    -0.098641       0.035368
      4 C                    -0.102939       0.721013
      5 C                     0.048058      -0.211429
      6 N                    -0.333608       0.456600
      7 H                     0.148413       0.028502
      8 H                     0.136423       0.002618
      9 H                     0.130991       0.006956
     10 H                     0.145071      -0.033391
     11 H                     0.148604       0.006811
     12 C                    -0.229916      -0.068028
     13 H                     0.146255       0.030178
  --------------------------------------------------------
  Sum of atomic charges =    -0.000000

                    Cartesian Multipole Moments
 -----------------------------------------------------------------
    Charge (ESU x 10^10)
                -0.0000
    Dipole Moment (Debye)
         X      -1.3195      Y      -1.1265      Z       0.6363
       Tot       1.8480
    Quadrupole Moments (Debye-Ang)
        XX     -37.9205     XY      -3.4392     YY     -40.2905
        XZ       0.6995     YZ       0.4766     ZZ     -41.6078

 Frequency:      -197.84                 224.58                 303.84
 Force Cnst:      0.0723                 0.0846                 0.1924
 Red. Mass:       3.1344                 2.8457                 3.5380
 IR Intens:       20.013                 10.406                  0.203
 Frequency:       386.57                 518.37                 637.52
 Force Cnst:      0.1919                 0.3592                 0.8405
 Red. Mass:       2.1790                 2.2688                 3.5098
 IR Intens:        3.243                  6.526                  6.565
 Frequency:       663.24                 737.09                 827.99
 Force Cnst:      0.6233                 0.6074                 1.2085
 Red. Mass:       2.4049                 1.8976                 2.9919
 IR Intens:       13.051                 41.751                  0.665
 Frequency:       848.33                 887.21                 918.20
 Force Cnst:      1.4653                 0.8081                 0.7815
 Red. Mass:       3.4557                 1.7425                 1.5732
 IR Intens:        6.240                 11.670                  4.749
 Frequency:       967.99                 989.68                1013.23
 Force Cnst:      1.3096                 0.9955                 1.1283
 Red. Mass:       2.3722                 1.7250                 1.8654
 IR Intens:        8.775                  3.067                 18.567
 Frequency:      1023.50                1084.61                1105.41
 Force Cnst:      0.9115                 1.5601                 1.1802
 Red. Mass:       1.4768                 2.2509                 1.6392
 IR Intens:       20.803                  6.662                  0.793
 Frequency:      1115.84                1153.39                1285.51
 Force Cnst:      0.9507                 1.3155                 2.7044
 Red. Mass:       1.2960                 1.6784                 2.7776
 IR Intens:       10.113                  4.599                  1.671
 Frequency:      1318.49                1337.35                1354.01
 Force Cnst:      1.2414                 1.8368                 1.7707
 Red. Mass:       1.2120                 1.7431                 1.6393
 IR Intens:        3.930                 18.931                 11.579
 Frequency:      1390.63                1456.98                1603.74
 Force Cnst:      2.2551                 4.2551                 7.2743
 Red. Mass:       1.9792                 3.4021                 4.8004
 IR Intens:        5.290                  1.771                  5.701
 Frequency:      2758.10                2892.87                2912.81
 Force Cnst:      4.8542                 5.4027                 5.4203
 Red. Mass:       1.0830                 1.0957                 1.0843
 IR Intens:       25.919                 42.909                 24.875
 Frequency:      3248.24                3267.17                3376.68
 Force Cnst:      6.7691                 6.8732                 7.3621
 Red. Mass:       1.0889                 1.0929                 1.0959
 IR Intens:       11.666                 26.580                 21.126

 STANDARD THERMODYNAMIC QUANTITIES AT   298.15 K  AND     1.00 ATM

   This Molecule has  1 Imaginary Frequencies
   Zero point vibrational energy:       62.342 kcal/mol

   Atom    1 Element C  Has Mass   12.00000
   Atom    2 Element C  Has Mass   12.00000
   Atom    3 Element C  Has Mass   12.00000
   Atom    4 Element C  Has Mass   12.00000
   Atom    5 Element C  Has Mass   12.00000
   Atom    6 Element N  Has Mass   14.00307
   Atom    7 Element H  Has Mass    1.00783
   Atom    8 Element H  Has Mass    1.00783
   Atom    9 Element H  Has Mass    1.00783
   Atom   10 Element H  Has Mass    1.00783
   Atom   11 Element H  Has Mass    1.00783
   Atom   12 Element C  Has Mass   12.00000
   Atom   13 Element H  Has Mass    1.00783
   Molecular Mass:    92.050050 amu
   Principal axes and moments of inertia in amu*Bohr^2:
                             1           2           3
    Eigenvalues --      352.40397   536.16908   760.00195
          X              -0.27585     0.91599     0.29132
          Y               0.96108     0.25814     0.09838
          Z              -0.01491    -0.30713     0.95155
   Rotational Symmetry Number is   1
   The Molecule is an Asymmetric Top
   Translational Enthalpy:        0.889 kcal/mol
   Rotational Enthalpy:           0.889 kcal/mol
   Vibrational Enthalpy:         63.838 kcal/mol
   gas constant (RT):             0.592 kcal/mol
   Translational Entropy:        39.471  cal/mol.K
   Rotational Entropy:           26.465  cal/mol.K
   Vibrational Entropy:           7.339  cal/mol.K

   Total Enthalpy:               66.208 kcal/mol
   Total Entropy:                73.275  cal/mol.K

 Total job time:  329.44s(wall), 257.90s(cpu)
        *  Thank you very much for using Q-Chem.  Have a nice day.  *
