 Q-Chem 5.0, Q-Chem, Inc., Pleasanton, CA (2017)
 Q-Chem 5.0.2 for Intel X86 EM64T Linux

User input:
--------------------------------------------------------------
$molecule
0 2
C        1.2274652642    0.2141256923    0.1478851555
C        1.1073307814   -1.0783012354   -0.5908401282
C       -0.0655245903   -1.5194142703   -0.1346883936
C       -1.2313776940    0.7455250258    0.2744550692
C       -0.4077062877    1.5959157053   -0.5146135987
N        0.8815308637    1.3470199665   -0.5553640183
H        1.9222449248    0.3231477270    0.9844289086
H        1.7679380223   -1.4647380794   -1.3620682358
H       -0.5698121777   -2.4632902295   -0.3523744344
H       -2.1944878513    1.1000423390    0.6348103928
H       -0.7941127689    2.4635243591   -1.0476506744
C       -0.6479132743   -0.4623301562    0.7578830170
H       -1.0745619194   -0.8329003667    1.6969124824
$end

$rem
method                b3lyp
basis                 6-31+g(d,p)
unrestricted          true
symmetry              off
sym_ignore            true
incdft                false
incfock               0
scf_convergence       8
thresh                14
jobtype               freq
scf_guess             read
scf_algorithm         diis
max_scf_cycles        100
$end

--------------------------------------------------------------

             Standard Nuclear Orientation (Angstroms)
    I     Atom           X                Y                Z
 ----------------------------------------------------------------
    1      C       1.2274652642     0.2141256923     0.1478851555
    2      C       1.1073307814    -1.0783012354    -0.5908401282
    3      C      -0.0655245903    -1.5194142703    -0.1346883936
    4      C      -1.2313776940     0.7455250258     0.2744550692
    5      C      -0.4077062877     1.5959157053    -0.5146135987
    6      N       0.8815308637     1.3470199665    -0.5553640183
    7      H       1.9222449248     0.3231477270     0.9844289086
    8      H       1.7679380223    -1.4647380794    -1.3620682358
    9      H      -0.5698121777    -2.4632902295    -0.3523744344
   10      H      -2.1944878513     1.1000423390     0.6348103928
   11      H      -0.7941127689     2.4635243591    -1.0476506744
   12      C      -0.6479132743    -0.4623301562     0.7578830170
   13      H      -1.0745619194    -0.8329003667     1.6969124824
 ----------------------------------------------------------------

    2    -286.8681929977      2.22E-09 Convergence criterion met
 Total energy in the final basis set = -286.86819300

                    Orbital Energies (a.u.)
 --------------------------------------------------------------

 Alpha MOs
 -- Occupied --
-14.352 -10.254 -10.236 -10.213 -10.212 -10.211 -10.204  -0.962
 -0.833  -0.778  -0.677  -0.648  -0.551  -0.543  -0.525  -0.474
 -0.462  -0.423  -0.413  -0.384  -0.344  -0.322  -0.280  -0.248
 -0.195

 Beta MOs
 -- Occupied --
-14.345 -10.249 -10.237 -10.214 -10.211 -10.205 -10.204  -0.949
 -0.827  -0.767  -0.672  -0.640  -0.544  -0.539  -0.520  -0.468
 -0.456  -0.417  -0.408  -0.375  -0.329  -0.302  -0.275  -0.238

          Ground-State Mulliken Net Atomic Charges

     Atom                 Charge (a.u.)    Spin (a.u.)
  --------------------------------------------------------
      1 C                    -0.155428       0.367618
      2 C                    -0.113489      -0.052504
      3 C                    -0.038532       0.044114
      4 C                    -0.028987       0.499026
      5 C                    -0.199842      -0.098092
      6 N                    -0.141029       0.316599
      7 H                     0.158032       0.011819
      8 H                     0.138394       0.004557
      9 H                     0.133375       0.026025
     10 H                     0.137192      -0.025982
     11 H                     0.130712       0.001642
     12 C                    -0.143950      -0.111322
     13 H                     0.123554       0.016499
  --------------------------------------------------------
  Sum of atomic charges =     0.000000

                    Cartesian Multipole Moments
 -----------------------------------------------------------------
    Charge (ESU x 10^10)
                 0.0000
    Dipole Moment (Debye)
         X      -0.9774      Y      -0.9414      Z       0.7096
       Tot       1.5314
    Quadrupole Moments (Debye-Ang)
        XX     -40.2789     XY      -3.1659     YY     -41.3151
        XZ       0.2731     YZ       1.0850     ZZ     -42.4817

 Frequency:      -617.72                 235.57                 305.29
 Force Cnst:      0.9109                 0.0941                 0.1706
 Red. Mass:       4.0516                 2.8785                 3.1059
 IR Intens:       15.711                  0.927                  6.353
 Frequency:       440.87                 531.96                 570.61
 Force Cnst:      0.3213                 0.4482                 0.7207
 Red. Mass:       2.8061                 2.6883                 3.7569
 IR Intens:        5.423                  7.542                 12.402
 Frequency:       684.38                 722.02                 762.55
 Force Cnst:      0.4687                 0.4920                 0.5553
 Red. Mass:       1.6984                 1.6019                 1.6208
 IR Intens:       12.969                 45.317                 65.607
 Frequency:       833.42                 868.32                 904.32
 Force Cnst:      1.0279                 1.1032                 0.9412
 Red. Mass:       2.5118                 2.4833                 1.9533
 IR Intens:        5.907                  4.292                 27.003
 Frequency:       943.10                 957.58                 988.70
 Force Cnst:      0.7364                 0.9491                 1.1543
 Red. Mass:       1.4053                 1.7568                 2.0041
 IR Intens:        4.703                  1.902                  2.530
 Frequency:      1023.46                1059.32                1106.93
 Force Cnst:      1.7406                 1.2268                 1.1003
 Red. Mass:       2.8204                 1.8556                 1.5241
 IR Intens:       17.644                  3.858                 22.998
 Frequency:      1116.47                1173.45                1293.47
 Force Cnst:      0.9517                 1.0655                 1.3273
 Red. Mass:       1.2958                 1.3133                 1.3466
 IR Intens:        9.164                  0.196                  0.451
 Frequency:      1346.17                1363.56                1391.44
 Force Cnst:      1.8990                 2.0978                 2.5936
 Red. Mass:       1.7786                 1.9150                 2.2736
 IR Intens:       29.571                  6.640                 10.020
 Frequency:      1440.12                1507.86                1675.02
 Force Cnst:      3.7049                 5.2193                 9.9873
 Red. Mass:       3.0320                 3.8962                 6.0417
 IR Intens:       24.681                  4.602                  9.402
 Frequency:      3073.36                3116.17                3129.50
 Force Cnst:      6.0306                 6.2139                 6.2866
 Red. Mass:       1.0836                 1.0861                 1.0895
 IR Intens:       24.791                 10.341                 27.921
 Frequency:      3166.90                3186.51                3203.07
 Force Cnst:      6.4275                 6.5438                 6.6619
 Red. Mass:       1.0877                 1.0938                 1.1021
 IR Intens:       11.333                 24.916                 18.777

 STANDARD THERMODYNAMIC QUANTITIES AT   298.15 K  AND     1.00 ATM

   This Molecule has  1 Imaginary Frequencies
   Zero point vibrational energy:       63.075 kcal/mol

   Atom    1 Element C  Has Mass   12.00000
   Atom    2 Element C  Has Mass   12.00000
   Atom    3 Element C  Has Mass   12.00000
   Atom    4 Element C  Has Mass   12.00000
   Atom    5 Element C  Has Mass   12.00000
   Atom    6 Element N  Has Mass   14.00307
   Atom    7 Element H  Has Mass    1.00783
   Atom    8 Element H  Has Mass    1.00783
   Atom    9 Element H  Has Mass    1.00783
   Atom   10 Element H  Has Mass    1.00783
   Atom   11 Element H  Has Mass    1.00783
   Atom   12 Element C  Has Mass   12.00000
   Atom   13 Element H  Has Mass    1.00783
   Molecular Mass:    92.050050 amu
   Principal axes and moments of inertia in amu*Bohr^2:
                             1           2           3
    Eigenvalues --      369.81338   513.95878   761.77580
          X              -0.27796     0.89743     0.34259
          Y               0.95966     0.24368     0.14028
          Z              -0.04241    -0.36776     0.92895
   Rotational Symmetry Number is   1
   The Molecule is an Asymmetric Top
   Translational Enthalpy:        0.889 kcal/mol
   Rotational Enthalpy:           0.889 kcal/mol
   Vibrational Enthalpy:         64.565 kcal/mol
   gas constant (RT):             0.592 kcal/mol
   Translational Entropy:        39.471  cal/mol.K
   Rotational Entropy:           26.473  cal/mol.K
   Vibrational Entropy:           7.229  cal/mol.K

   Total Enthalpy:               66.935 kcal/mol
   Total Entropy:                73.174  cal/mol.K

 Total job time:  645.77s(wall), 555.78s(cpu)
        *  Thank you very much for using Q-Chem.  Have a nice day.  *
