 Q-Chem 5.0, Q-Chem, Inc., Pleasanton, CA (2017)
 Q-Chem 5.0.2 for Intel X86 EM64T Linux

User input:
--------------------------------------------------------------
$molecule
0 2
C        1.1401006700    0.1754594708    0.4451856889
C        0.8123354904   -1.0251546123   -0.4554534135
C       -0.5151182147   -1.0057123693   -0.6587281972
C       -1.0649680133    0.2080973500    0.1171049735
C       -0.3889347317    1.4433667314   -0.5130601822
N        0.8759507581    1.4475767414   -0.3465700902
H        2.1248965745    0.1903984484    0.9097901079
H        1.5411237209   -1.7185386434   -0.8605346292
H       -1.1119168936   -1.6729215791   -1.2710693614
H       -2.1425460325    0.2491666144    0.2763487898
H       -0.9097481773    2.2254832354   -1.0629243891
C       -0.1107148966    0.1065284331    1.3121973442
H       -0.2504602542   -0.6237498208    2.1077133583
$end

$rem
method                b3lyp
basis                 6-31g(d)
unrestricted          true
symmetry              off
sym_ignore            true
incdft                false
incfock               0
scf_convergence       8
thresh                14
jobtype               opt
scf_guess             read
scf_algorithm         diis
max_scf_cycles        100
geom_opt_tol_gradient 600
geom_opt_tol_displacement 2400
geom_opt_tol_energy   200
geom_opt_max_cycles   100
$end

--------------------------------------------------------------

    2    -286.8516599220      6.54E-10 Convergence criterion met
 Total energy in the final basis set = -286.85165992

             Standard Nuclear Orientation (Angstroms)
    I     Atom           X                Y                Z
 ----------------------------------------------------------------
    1      C       1.1399857244     0.1759164277     0.4459604371
    2      C       0.8122131836    -1.0238800590    -0.4565487859
    3      C      -0.5155151954    -1.0061632553    -0.6579902619
    4      C      -1.0650185475     0.2083482994     0.1167869314
    5      C      -0.3886563450     1.4435821147    -0.5127491371
    6      N       0.8762660432     1.4479148589    -0.3455061286
    7      H       2.1247283763     0.1896748817     0.9107828980
    8      H       1.5413262868    -1.7167447235    -0.8620024084
    9      H      -1.1129743001    -1.6740815464    -1.2689571215
   10      H      -2.1425452818     0.2493860349     0.2764065945
   11      H      -0.9086143233     2.2246103179    -1.0649825279
   12      C      -0.1112970403     0.1061087960     1.3118457043
   13      H      -0.2498985810    -0.6246721469     2.1069538058
 ----------------------------------------------------------------

   10    -286.8516611842      9.10E-09 Convergence criterion met
 Total energy in the final basis set = -286.85166118
 Final energy is   -286.851661184222
 **  OPTIMIZATION CONVERGED  **

                    Orbital Energies (a.u.)
 --------------------------------------------------------------

 Alpha MOs
 -- Occupied --
-14.322 -10.224 -10.220 -10.210 -10.204 -10.201 -10.197  -0.952
 -0.821  -0.726  -0.705  -0.579  -0.573  -0.531  -0.512  -0.472
 -0.418  -0.410  -0.381  -0.373  -0.348  -0.294  -0.271  -0.258
 -0.196

 Beta MOs
 -- Occupied --
-14.321 -10.224 -10.221 -10.210 -10.200 -10.196 -10.190  -0.949
 -0.815  -0.725  -0.690  -0.577  -0.561  -0.527  -0.509  -0.463
 -0.414  -0.406  -0.379  -0.369  -0.342  -0.287  -0.261  -0.255

          Ground-State Mulliken Net Atomic Charges

     Atom                 Charge (a.u.)    Spin (a.u.)
  --------------------------------------------------------
      1 C                    -0.094615      -0.045004
      2 C                    -0.088099       0.040664
      3 C                    -0.095656       0.079023
      4 C                    -0.246327      -0.043854
      5 C                     0.092239      -0.008758
      6 N                    -0.325140       0.021816
      7 H                     0.139810       0.003022
      8 H                     0.146097       0.000858
      9 H                     0.145561       0.000370
     10 H                     0.133933       0.002869
     11 H                     0.149652      -0.000178
     12 C                    -0.096257       0.975683
     13 H                     0.138803      -0.026512
  --------------------------------------------------------
  Sum of atomic charges =    -0.000000

                    Cartesian Multipole Moments
 -----------------------------------------------------------------
    Charge (ESU x 10^10)
                 0.0000
    Dipole Moment (Debye)
         X      -1.5115      Y      -1.8323      Z      -0.0253
       Tot       2.3754
    Quadrupole Moments (Debye-Ang)
        XX     -38.4661     XY      -4.0830     YY     -42.3626
        XZ       2.0847     YZ       0.2856     ZZ     -40.6555

 Total job time:  42.83s(wall), 51.16s(cpu)
        *  Thank you very much for using Q-Chem.  Have a nice day.  *
