 Q-Chem 5.0, Q-Chem, Inc., Pleasanton, CA (2017)
 Q-Chem 5.0.2 for Intel X86 EM64T Linux

User input:
--------------------------------------------------------------
$molecule
0 2
C        0.8829147174    0.7002393300   -1.4289989824
C       -1.0692525416   -0.5755694777   -0.5778640801
C       -1.5408371017   -0.9503100396    0.6605556058
C       -0.7043407790   -0.3341093709    1.6408168711
C        0.2580501420    0.3851393189    0.9687238442
N        0.0334799594    0.2412604960   -0.3899815029
H        0.3590254364    0.9811320125   -2.3413730856
H       -1.3934228226   -0.8398005421   -1.5738610076
H       -2.3924909653   -1.5900549632    0.8442878205
H       -0.8115230671   -0.3926751027    2.7147896877
H        1.0486093898    1.0279020009    1.3259538565
C        2.1950558435    0.7875064416   -1.3327561759
H        2.9791736446    0.5774342679   -0.6207292803
$end

$rem
method                b3lyp
basis                 6-31+g(d,p)
unrestricted          true
symmetry              off
sym_ignore            true
incdft                false
incfock               0
scf_convergence       8
thresh                14
jobtype               opt
scf_guess             read
scf_algorithm         diis
max_scf_cycles        100
geom_opt_max_cycles   300
$end

--------------------------------------------------------------

   20    -286.8933345054      6.13E-09 Convergence criterion met
 Total energy in the final basis set = -286.89333451
   14    -286.8939265049      5.01E-09 Convergence criterion met
 Total energy in the final basis set = -286.89392650
   14    -286.8945593504      7.21E-09 Convergence criterion met
 Total energy in the final basis set = -286.89455935
   14    -286.8949706810      4.05E-09 Convergence criterion met
 Total energy in the final basis set = -286.89497068
   14    -286.8951772981      4.73E-09 Convergence criterion met
 Total energy in the final basis set = -286.89517730
   13    -286.8952202914      3.03E-09 Convergence criterion met
 Total energy in the final basis set = -286.89522029
   13    -286.8952320702      1.40E-09 Convergence criterion met
 Total energy in the final basis set = -286.89523207
   12    -286.8952359256      8.19E-09 Convergence criterion met
 Total energy in the final basis set = -286.89523593

             Standard Nuclear Orientation (Angstroms)
    I     Atom           X                Y                Z
 ----------------------------------------------------------------
    1      C       0.9564064317     0.5041559183    -1.4319237878
    2      C      -1.1254892478    -0.5098265148    -0.5709814536
    3      C      -1.6581336024    -0.8017602222     0.6624466591
    4      C      -0.7067956519    -0.3840770030     1.6448582417
    5      C       0.3722701689     0.1482402803     0.9772134420
    6      N       0.1190438036     0.0727443444    -0.3811900791
    7      H       0.5237045140     0.3175042315    -2.4135458335
    8      H      -1.5135389446    -0.6598289634    -1.5678027883
    9      H      -2.6192254300    -1.2619865719     0.8438235242
   10      H      -0.8050627710    -0.4670828990     2.7183479193
   11      H       1.2944678629     0.5701214033     1.3459619367
   12      C       2.1400217526     1.0761792725    -1.3296671926
   13      H       2.8667729697     1.4137110956    -0.6079770172
 ----------------------------------------------------------------

   10    -286.8952366243      8.67E-09 Convergence criterion met
 Total energy in the final basis set = -286.89523662
 Final energy is   -286.895236624338
 **  OPTIMIZATION CONVERGED  **

                    Orbital Energies (a.u.)
 --------------------------------------------------------------

 Alpha MOs
 -- Occupied --
-14.408 -10.253 -10.228 -10.220 -10.217 -10.186 -10.185  -1.002
 -0.830  -0.749  -0.734  -0.629  -0.585  -0.557  -0.543  -0.469
 -0.447  -0.437  -0.426  -0.397  -0.387  -0.317  -0.265  -0.239
 -0.226

 Beta MOs
 -- Occupied --
-14.406 -10.255 -10.220 -10.217 -10.212 -10.187 -10.185  -1.000
 -0.824  -0.738  -0.730  -0.616  -0.582  -0.555  -0.534  -0.462
 -0.443  -0.437  -0.423  -0.395  -0.387  -0.313  -0.231  -0.226

          Ground-State Mulliken Net Atomic Charges

     Atom                 Charge (a.u.)    Spin (a.u.)
  --------------------------------------------------------
      1 C                    -0.037844      -0.139266
      2 C                    -0.213305       0.021779
      3 C                    -0.077114      -0.020835
      4 C                    -0.143404       0.034296
      5 C                    -0.203211      -0.036462
      6 N                     0.016464       0.036874
      7 H                     0.142279       0.038364
      8 H                     0.133714       0.000252
      9 H                     0.126462       0.001712
     10 H                     0.126130       0.001007
     11 H                     0.134303      -0.000282
     12 C                    -0.158078       1.063482
     13 H                     0.153605      -0.000920
  --------------------------------------------------------
  Sum of atomic charges =     0.000000

                    Cartesian Multipole Moments
 -----------------------------------------------------------------
    Charge (ESU x 10^10)
                 0.0000
    Dipole Moment (Debye)
         X       0.2412      Y       0.1225      Z      -0.2503
       Tot       0.3685
    Quadrupole Moments (Debye-Ang)
        XX     -40.0582     XY       3.2719     YY     -45.5502
        XZ       2.9885     YZ       1.1740     ZZ     -38.7399

 Total job time:  360.48s(wall), 759.14s(cpu)
        *  Thank you very much for using Q-Chem.  Have a nice day.  *
