 Q-Chem 5.0, Q-Chem, Inc., Pleasanton, CA (2017)
 Q-Chem 5.0.2 for Intel X86 EM64T Linux

User input:
--------------------------------------------------------------
$molecule
0 2
C        0.9683724428    0.5027640436   -1.4234286779
C       -1.1135232367   -0.5112183895   -0.5624863437
C       -1.6461675913   -0.8031520969    0.6709417690
C       -0.6948296408   -0.3854688777    1.6533533516
C        0.3842361800    0.1468484056    0.9857085519
N        0.1310098147    0.0713524697   -0.3726949692
H        0.5356705251    0.3161123568   -2.4050507236
H       -1.5015729335   -0.6612208381   -1.5593076784
H       -2.6072594189   -1.2633784466    0.8523186341
H       -0.7930967599   -0.4684747737    2.7268430292
H        1.3064338740    0.5687295286    1.3544570466
C        2.1519877637    1.0747873978   -1.3211720827
H        2.8787389808    1.4123192209   -0.5994819073
$end

$rem
method                b3lyp
basis                 6-31+g(d,p)
unrestricted          true
symmetry              off
sym_ignore            true
incdft                false
incfock               0
scf_convergence       8
thresh                14
jobtype               sp
scf_guess             read
scf_algorithm         diis
max_scf_cycles        100
scf_final_print       1
$end

--------------------------------------------------------------

             Standard Nuclear Orientation (Angstroms)
    I     Atom           X                Y                Z
 ----------------------------------------------------------------
    1      C       0.9683724428     0.5027640436    -1.4234286779
    2      C      -1.1135232367    -0.5112183895    -0.5624863437
    3      C      -1.6461675913    -0.8031520969     0.6709417690
    4      C      -0.6948296408    -0.3854688777     1.6533533516
    5      C       0.3842361800     0.1468484056     0.9857085519
    6      N       0.1310098147     0.0713524697    -0.3726949692
    7      H       0.5356705251     0.3161123568    -2.4050507236
    8      H      -1.5015729335    -0.6612208381    -1.5593076784
    9      H      -2.6072594189    -1.2633784466     0.8523186341
   10      H      -0.7930967599    -0.4684747737     2.7268430292
   11      H       1.3064338740     0.5687295286     1.3544570466
   12      C       2.1519877637     1.0747873978    -1.3211720827
   13      H       2.8787389808     1.4123192209    -0.5994819073
 ----------------------------------------------------------------

    2    -286.8952366243      8.44E-10 Convergence criterion met
 Total energy in the final basis set = -286.89523662

                    Orbital Energies (a.u.)
 --------------------------------------------------------------

 Alpha MOs
 -- Occupied --
-14.408 -10.253 -10.228 -10.220 -10.217 -10.186 -10.185  -1.002
 -0.830  -0.749  -0.734  -0.629  -0.585  -0.557  -0.543  -0.469
 -0.447  -0.437  -0.426  -0.397  -0.387  -0.317  -0.265  -0.239
 -0.226

 Beta MOs
 -- Occupied --
-14.406 -10.255 -10.220 -10.217 -10.212 -10.187 -10.185  -1.000
 -0.824  -0.738  -0.730  -0.616  -0.582  -0.555  -0.534  -0.462
 -0.443  -0.437  -0.423  -0.395  -0.387  -0.313  -0.231  -0.226

          Ground-State Mulliken Net Atomic Charges

     Atom                 Charge (a.u.)    Spin (a.u.)
  --------------------------------------------------------
      1 C                    -0.037845      -0.139264
      2 C                    -0.213305       0.021781
      3 C                    -0.077114      -0.020837
      4 C                    -0.143404       0.034298
      5 C                    -0.203211      -0.036464
      6 N                     0.016464       0.036874
      7 H                     0.142279       0.038364
      8 H                     0.133714       0.000251
      9 H                     0.126462       0.001712
     10 H                     0.126130       0.001007
     11 H                     0.134303      -0.000282
     12 C                    -0.158078       1.063480
     13 H                     0.153605      -0.000920
  --------------------------------------------------------
  Sum of atomic charges =     0.000000

                    Cartesian Multipole Moments
 -----------------------------------------------------------------
    Charge (ESU x 10^10)
                 0.0000
    Dipole Moment (Debye)
         X       0.2412      Y       0.1225      Z      -0.2503
       Tot       0.3685
    Quadrupole Moments (Debye-Ang)
        XX     -40.0524     XY       3.2730     YY     -45.5505
        XZ       2.9875     YZ       1.1754     ZZ     -38.7442

 Total job time:  12.14s(wall), 11.62s(cpu)
        *  Thank you very much for using Q-Chem.  Have a nice day.  *
