 Q-Chem 5.0, Q-Chem, Inc., Pleasanton, CA (2017)
 Q-Chem 5.0.2 for Intel X86 EM64T Linux

User input:
--------------------------------------------------------------
$molecule
0 2
C        1.2076267962    0.8120801738   -1.6816355089
C       -1.2199747155   -0.4923174217   -0.5538801930
C       -1.4264404055   -1.0948071516    0.7093672428
C       -0.6232100535   -0.3773837501    1.6460982020
C        0.0190535092    0.5984753126    0.9199072976
N       -0.4145213501    0.5694230743   -0.4260649567
H        0.6347741315    1.1700098895   -2.5107483223
H       -1.6965260714   -0.7339998728   -1.4956328242
H       -2.1427726353   -1.8770138428    0.9309664136
H       -0.5383328335   -0.5644637078    2.7079337036
H        0.7469333948    1.3343116258    1.2312479331
C        2.2683823995    0.5003980097   -1.1306603500
H        3.0294496906    0.1733820337   -0.4573350636
$end

$rem
method                b3lyp
basis                 6-31+g(d,p)
unrestricted          true
symmetry              off
sym_ignore            true
incdft                false
incfock               0
scf_convergence       8
thresh                14
jobtype               sp
scf_guess             core
scf_guess_mix         5
scf_algorithm         diis
max_scf_cycles        100
$end

--------------------------------------------------------------

             Standard Nuclear Orientation (Angstroms)
    I     Atom           X                Y                Z
 ----------------------------------------------------------------
    1      C       1.2076267962     0.8120801738    -1.6816355089
    2      C      -1.2199747155    -0.4923174217    -0.5538801930
    3      C      -1.4264404055    -1.0948071516     0.7093672428
    4      C      -0.6232100535    -0.3773837501     1.6460982020
    5      C       0.0190535092     0.5984753126     0.9199072976
    6      N      -0.4145213501     0.5694230743    -0.4260649567
    7      H       0.6347741315     1.1700098895    -2.5107483223
    8      H      -1.6965260714    -0.7339998728    -1.4956328242
    9      H      -2.1427726353    -1.8770138428     0.9309664136
   10      H      -0.5383328335    -0.5644637078     2.7079337036
   11      H       0.7469333948     1.3343116258     1.2312479331
   12      C       2.2683823995     0.5003980097    -1.1306603500
   13      H       3.0294496906     0.1733820337    -0.4573350636
 ----------------------------------------------------------------

   25    -286.8359952760      8.00E-09 Convergence criterion met
 Total energy in the final basis set = -286.83599528

                    Orbital Energies (a.u.)
 --------------------------------------------------------------

 Alpha MOs
 -- Occupied --
-14.364 -10.231 -10.222 -10.215 -10.213 -10.209 -10.187  -0.962
 -0.781  -0.758  -0.722  -0.585  -0.570  -0.555  -0.522  -0.496
 -0.421  -0.417  -0.402  -0.391  -0.346  -0.304  -0.269  -0.239
 -0.225

 Beta MOs
 -- Occupied --
-14.357 -10.232 -10.218 -10.214 -10.210 -10.204 -10.188  -0.951
 -0.771  -0.749  -0.713  -0.579  -0.564  -0.551  -0.516  -0.493
 -0.414  -0.402  -0.396  -0.387  -0.330  -0.300  -0.253  -0.220

          Ground-State Mulliken Net Atomic Charges

     Atom                 Charge (a.u.)    Spin (a.u.)
  --------------------------------------------------------
      1 C                    -0.148766      -0.099963
      2 C                    -0.074800      -0.091801
      3 C                    -0.110264       0.423298
      4 C                    -0.018539      -0.139367
      5 C                    -0.305905       0.260368
      6 N                    -0.132286       0.277199
      7 H                     0.173502       0.009550
      8 H                     0.125405       0.002170
      9 H                     0.132614      -0.016703
     10 H                     0.128228       0.004082
     11 H                     0.135669      -0.011771
     12 C                    -0.082277       0.397461
     13 H                     0.177420      -0.014522
  --------------------------------------------------------
  Sum of atomic charges =    -0.000000

                    Cartesian Multipole Moments
 -----------------------------------------------------------------
    Charge (ESU x 10^10)
                -0.0000
    Dipole Moment (Debye)
         X       0.3463      Y      -0.6301      Z       0.1614
       Tot       0.7369
    Quadrupole Moments (Debye-Ang)
        XX     -39.4581     XY       2.6965     YY     -43.0436
        XZ       2.9846     YZ      -0.7925     ZZ     -38.2763

 Total job time:  67.30s(wall), 123.02s(cpu)
        *  Thank you very much for using Q-Chem.  Have a nice day.  *
