 Q-Chem 5.0, Q-Chem, Inc., Pleasanton, CA (2017)
 Q-Chem 5.0.2 for Intel X86 EM64T Linux

User input:
--------------------------------------------------------------
$molecule
0 2
C        2.2155537537    1.1150398049   -1.8750039387
C       -1.2968693862   -0.5889952483   -0.2350131219
C       -2.0872836055   -1.0526002776    0.9010553695
C       -1.3570033200   -0.7231979277    2.0067383978
C       -0.1548477477   -0.0727308738    1.4950690877
N       -0.1435940383   -0.0050470575    0.1478094870
H        1.4522464396    0.7649736032   -1.2011352911
H       -1.5550945514   -0.6768267834   -1.2847778482
H       -3.0464654688   -1.5502498583    0.8511605727
H       -1.5963526014   -0.8953770460    3.0475700357
H        0.6661404346    0.3273561032    2.0807963162
C        3.0729554270    1.5064003995   -2.6339355960
H        3.8306146647    1.8512551619   -3.3003334708
$end

$rem
method                b3lyp
basis                 6-31+g(d,p)
unrestricted          true
symmetry              off
sym_ignore            true
incdft                false
incfock               0
scf_convergence       6
thresh                14
jobtype               sp
scf_guess             read
scf_algorithm         diis
max_scf_cycles        100
stability_analysis    true
max_cis_cycles        100
cis_n_roots           4
$end

--------------------------------------------------------------

             Standard Nuclear Orientation (Angstroms)
    I     Atom           X                Y                Z
 ----------------------------------------------------------------
    1      C       2.2155537537     1.1150398049    -1.8750039387
    2      C      -1.2968693862    -0.5889952483    -0.2350131219
    3      C      -2.0872836055    -1.0526002776     0.9010553695
    4      C      -1.3570033200    -0.7231979277     2.0067383978
    5      C      -0.1548477477    -0.0727308738     1.4950690877
    6      N      -0.1435940383    -0.0050470575     0.1478094870
    7      H       1.4522464396     0.7649736032    -1.2011352911
    8      H      -1.5550945514    -0.6768267834    -1.2847778482
    9      H      -3.0464654688    -1.5502498583     0.8511605727
   10      H      -1.5963526014    -0.8953770460     3.0475700357
   11      H       0.6661404346     0.3273561032     2.0807963162
   12      C       3.0729554270     1.5064003995    -2.6339355960
   13      H       3.8306146647     1.8512551619    -3.3003334708
 ----------------------------------------------------------------

    2    -286.8706110794      1.44E-09 Convergence criterion met
 Total energy in the final basis set = -286.87061108

         TDDFT/TDA Excitation Energies
 ---------------------------------------------------

 Excited state   1: excitation energy (eV) =    1.5658
 Total energy for state  1:                  -286.81306922 au
    <S**2>     :  0.8111
    Trans. Mom.: -0.1021 X  -0.0460 Y  -0.1530 Z
    Strength   :     0.0013790547
    D( 22) --> S(  1) amplitude =  0.2877 beta
    D( 24) --> S(  1) amplitude =  0.9452 beta

 Excited state   2: excitation energy (eV) =    2.2426
 Total energy for state  2:                  -286.78819697 au
    <S**2>     :  0.7707
    Trans. Mom.:  0.0005 X   0.0006 Y   0.0003 Z
    Strength   :     0.0000000374
    D( 21) --> S(  1) amplitude =  0.9979 beta

 Excited state   3: excitation energy (eV) =    2.5916
 Total energy for state  3:                  -286.77537095 au
    <S**2>     :  0.7758
    Trans. Mom.: -0.0034 X  -0.0014 Y  -0.0114 Z
    Strength   :     0.0000091821
    D( 22) --> S(  1) amplitude =  0.9562 beta
    D( 24) --> S(  1) amplitude = -0.2922 beta

 Excited state   4: excitation energy (eV) =    2.5974
 Total energy for state  4:                  -286.77515905 au
    <S**2>     :  0.7757
    Trans. Mom.:  0.0022 X   0.0075 Y  -0.0039 Z
    Strength   :     0.0000048241
    D( 23) --> S(  1) amplitude =  0.9998 beta

 ---------------------------------------------------

                    Orbital Energies (a.u.)
 --------------------------------------------------------------

 Alpha MOs
 -- Occupied --
-14.344 -10.262 -10.262 -10.221 -10.220 -10.183 -10.179  -0.981
 -0.790  -0.743  -0.734  -0.590  -0.584  -0.550  -0.538  -0.475
 -0.438  -0.431  -0.424  -0.411  -0.296  -0.275  -0.274  -0.273
 -0.262

 Beta MOs
 -- Occupied --
-14.347 -10.255 -10.255 -10.220 -10.219 -10.183 -10.179  -0.975
 -0.787  -0.734  -0.722  -0.584  -0.573  -0.550  -0.536  -0.475
 -0.434  -0.421  -0.405  -0.402  -0.298  -0.274  -0.274  -0.270

          Ground-State Mulliken Net Atomic Charges

     Atom                 Charge (a.u.)    Spin (a.u.)
  --------------------------------------------------------
      1 C                    -0.081102       0.000279
      2 C                    -0.035820       0.529040
      3 C                    -0.136404       0.083039
      4 C                    -0.132217       0.079258
      5 C                    -0.038356       0.531756
      6 N                    -0.179981      -0.160357
      7 H                     0.210219       0.001408
      8 H                     0.146063      -0.026282
      9 H                     0.143068      -0.005907
     10 H                     0.143147      -0.005789
     11 H                     0.145817      -0.026386
     12 C                    -0.367342      -0.000072
     13 H                     0.182907       0.000013
  --------------------------------------------------------
  Sum of atomic charges =     0.000000

                    Cartesian Multipole Moments
 -----------------------------------------------------------------
    Charge (ESU x 10^10)
                 0.0000
    Dipole Moment (Debye)
         X      -2.2445      Y      -1.2101      Z       1.8807
       Tot       3.1685
    Quadrupole Moments (Debye-Ang)
        XX     -38.5193     XY       3.3840     YY     -44.0668
        XZ      -0.3108     YZ      -0.2677     ZZ     -36.5358

 Total job time:  154.22s(wall), 102.44s(cpu)
        *  Thank you very much for using Q-Chem.  Have a nice day.  *
