 Q-Chem 5.0, Q-Chem, Inc., Pleasanton, CA (2017)
 Q-Chem 5.0.2 for Intel X86 EM64T Linux

User input:
--------------------------------------------------------------
$molecule
0 2
C        1.0183954813    0.4593715561   -1.4023300505
C       -1.0956417493   -0.5218607604   -0.5843778590
C       -1.6693247841   -0.7765667650    0.6357657213
C       -0.7532403170   -0.3288409456    1.6371248331
C        0.3467228349    0.1823739553    0.9932490352
N        0.1415295271    0.0666400021   -0.3703470288
H        0.6079202841    0.2596152290   -2.3915183505
H       -1.4458104655   -0.7021858211   -1.5908056168
H       -2.6371995227   -1.2312635374    0.7978919189
H       -0.8903867239   -0.3777068786    2.7090939850
H        1.2563384701    0.6192877005    1.3771773377
C        2.2085836599    1.0094464343   -1.2793170974
H        2.9121133053    1.3416898307   -0.5316068277
****
C        2.2763377536    1.0174178095   -1.8296954736
C       -1.2673111622   -0.5615943775   -0.2566472798
C       -2.0762429098   -1.0561506418    0.8508952567
C       -1.4347146378   -0.6370272402    1.9787365432
C       -0.2647596642    0.0949717330    1.5066392231
N       -0.1863765487    0.1257187167    0.1620241681
H        1.4720991758    0.7815948277   -1.1538698384
H       -1.4624754393   -0.7000419718   -1.3153183403
H       -2.9883838449   -1.6332319355    0.7688576544
H       -1.7119304993   -0.7996720888    3.0121763606
H        0.4889022320    0.5803044316    2.1192668207
C        3.1790188532    1.2790672772   -2.5863768734
H        3.9758366916    1.5086434600   -3.2566882213
$end

$rem
method                b3lyp
basis                 6-31g(d)
unrestricted          true
symmetry              off
sym_ignore            true
incdft                false
incfock               0
scf_convergence       8
thresh                14
jobtype               fsm
scf_guess             core
scf_guess_mix         5
scf_algorithm         diis
max_scf_cycles        100
fsm_nnode             21
fsm_ngrad             6
fsm_mode              2
fsm_opt_mode          2
$end

--------------------------------------------------------------

   21    -286.8708000301      7.07E-09 Convergence criterion met
 Total energy in the final basis set = -286.87080003
   25    -286.8437199821      5.14E-09 Convergence criterion met
 Total energy in the final basis set = -286.84371998
   23    -286.8653284845      3.94E-09 Convergence criterion met
 Total energy in the final basis set = -286.86532848
   21    -286.8662470913      7.04E-09 Convergence criterion met
 Total energy in the final basis set = -286.86624709
   23    -286.8667522435      4.09E-09 Convergence criterion met
 Total energy in the final basis set = -286.86675224
   23    -286.8645677414      5.61E-09 Convergence criterion met
 Total energy in the final basis set = -286.86456774
   24    -286.8658461645      4.34E-09 Convergence criterion met
 Total energy in the final basis set = -286.86584616
   23    -286.8687574215      3.83E-09 Convergence criterion met
 Total energy in the final basis set = -286.77487453
   28    -286.7748848227      7.03E-09 Convergence criterion met
 Total energy in the final basis set = -286.77488482
   32    -286.7750435988      4.28E-09 Convergence criterion met
 Total energy in the final basis set = -286.77504360
   29    -286.7747455087      6.57E-09 Convergence criterion met
 Total energy in the final basis set = -286.77474551
   31    -286.7751116479      4.35E-09 Convergence criterion met
 Total energy in the final basis set = -286.77511165
   29    -286.7746938964      4.45E-09 Convergence criterion met
 Total energy in the final basis set = -286.77469390
   31    -286.7751435260      7.59E-09 Convergence criterion met
 Total energy in the final basis set = -286.77514353
   30    -286.7746754920      6.74E-09 Convergence criterion met
 Total energy in the final basis set = -286.77467549

                    Orbital Energies (a.u.)
 --------------------------------------------------------------

 Alpha MOs
 -- Occupied --
-14.375 -10.260 -10.254 -10.197 -10.193 -10.163 -10.158  -0.937
 -0.792  -0.738  -0.696  -0.602  -0.544  -0.538  -0.521  -0.482
 -0.402  -0.385  -0.379  -0.372  -0.354  -0.315  -0.259  -0.226
 -0.194

 Beta MOs
 -- Occupied --
-14.365 -10.262 -10.245 -10.196 -10.192 -10.163 -10.158  -0.925
 -0.776  -0.729  -0.692  -0.589  -0.540  -0.534  -0.511  -0.474
 -0.397  -0.374  -0.371  -0.362  -0.345  -0.309  -0.220  -0.189

          Ground-State Mulliken Net Atomic Charges

     Atom                 Charge (a.u.)    Spin (a.u.)
  --------------------------------------------------------
      1 C                    -0.088188      -0.188939
      2 C                     0.009375       0.033472
      3 C                    -0.167726       0.026236
      4 C                    -0.181459       0.004852
      5 C                     0.031489       0.053015
      6 N                    -0.415056       0.363567
      7 H                     0.204267       0.039755
      8 H                     0.129214      -0.000244
      9 H                     0.123960       0.003482
     10 H                     0.121880       0.005359
     11 H                     0.131567      -0.000009
     12 C                    -0.130565       0.694356
     13 H                     0.231243      -0.034902
  --------------------------------------------------------
  Sum of atomic charges =    -0.000000

                    Cartesian Multipole Moments
 -----------------------------------------------------------------
    Charge (ESU x 10^10)
                -0.0000
    Dipole Moment (Debye)
         X       2.2623      Y       0.9810      Z      -2.0696
       Tot       3.2193
    Quadrupole Moments (Debye-Ang)
        XX     -31.6917     XY       5.8679     YY     -42.6447
        XZ      -3.8058     YZ      -1.6125     ZZ     -34.7329

             Standard Nuclear Orientation (Angstroms)
    I     Atom           X                Y                Z
 ----------------------------------------------------------------
    1      C       1.3303144407     0.6754004236    -1.4599977822
    2      C      -1.0848264040    -0.5291237704    -0.4892991065
    3      C      -1.7689459615    -0.8849933422     0.6653610171
    4      C      -1.0031380540    -0.4349049619     1.7706886881
    5      C       0.1326188787     0.1677928015     1.2545519185
    6      N       0.0703681642     0.1230069136    -0.1138684605
    7      H       0.5151428669     0.5052420889    -2.1324158606
    8      H      -1.3864344996    -0.6887794939    -1.5173617589
    9      H      -2.7233176010    -1.4022172303     0.7101716764
   10      H      -1.2390931498    -0.5569865314     2.8215010080
   11      H       0.9658951533     0.6315059261     1.7646334970
   12      C       2.5173674171     1.0384098106    -1.5918501756
   13      H       3.5184905871     1.3737417236    -1.7925511668
 ----------------------------------------------------------------

 Total job time:  4434.03s(wall), 4962.97s(cpu)
        *  Thank you very much for using Q-Chem.  Have a nice day.  *
