 Q-Chem 5.0, Q-Chem, Inc., Pleasanton, CA (2017)
 Q-Chem 5.0.2 for Intel X86 EM64T Linux

User input:
--------------------------------------------------------------
$molecule
0 2
C        1.7309549290    0.8750281617   -1.9796526017
C       -1.5001720636   -0.4181010313   -0.4224700421
C       -1.5072725327   -1.1723623527    0.8332479097
C       -0.7070032578   -0.4622618593    1.6823121862
C       -0.2462648181    0.6805303159    0.9070162878
N       -0.7560646176    0.6913916981   -0.3485527057
H        0.9163019654    1.2136976453   -2.5785218828
H       -2.0043916999   -0.6900856641   -1.3440898674
H       -2.0501572042   -2.0885998715    1.0233259286
H       -0.4582405844   -0.6795499983    2.7125983348
H        0.4548214868    1.4433789545    1.2293759976
C        2.6097931086    0.4865529220   -1.2468768937
H        3.3621371470    0.1384754557   -0.5781490719
$end

$rem
method                b3lyp
basis                 6-31+g(d,p)
unrestricted          true
symmetry              off
sym_ignore            true
incdft                false
incfock               0
scf_convergence       8
thresh                14
jobtype               opt
scf_guess             read
scf_algorithm         diis
max_scf_cycles        100
geom_opt_max_cycles   300
$end

--------------------------------------------------------------

   19    -286.8619723469      6.92E-09 Convergence criterion met
 Total energy in the final basis set = -286.86197235
   14    -286.8629697668      9.41E-09 Convergence criterion met
 Total energy in the final basis set = -286.86296977
   15    -286.8639424724      6.30E-09 Convergence criterion met
 Total energy in the final basis set = -286.86394247
   14    -286.8645803229      9.27E-09 Convergence criterion met
 Total energy in the final basis set = -286.86458032
   14    -286.8650325733      9.50E-09 Convergence criterion met
 Total energy in the final basis set = -286.86503257
   14    -286.8653864526      6.50E-09 Convergence criterion met
 Total energy in the final basis set = -286.86538645
   14    -286.8656698303      6.03E-09 Convergence criterion met
 Total energy in the final basis set = -286.86566983
   14    -286.8658948201      6.49E-09 Convergence criterion met
   12    -286.8706096160      6.62E-09 Convergence criterion met
 Total energy in the final basis set = -286.87060962
   13    -286.8706108717      2.74E-09 Convergence criterion met
 Total energy in the final basis set = -286.87061087
   12    -286.8706118710      7.56E-09 Convergence criterion met
 Total energy in the final basis set = -286.87061187
   13    -286.8706126007      2.20E-09 Convergence criterion met
 Total energy in the final basis set = -286.87061260
   11    -286.8706135075      9.12E-09 Convergence criterion met
 Total energy in the final basis set = -286.87061351
   13    -286.8706146164      4.71E-09 Convergence criterion met
 Total energy in the final basis set = -286.87061462

             Standard Nuclear Orientation (Angstroms)
    I     Atom           X                Y                Z
 ----------------------------------------------------------------
    1      C       2.4061656157     0.7201240322    -1.8268747757
    2      C      -1.1979114773    -0.7957414021    -0.2031705061
    3      C      -2.1409297522    -0.9574028915     0.8989463984
    4      C      -1.6407055212    -0.1958927816     1.9159350115
    5      C      -0.4158725916     0.3965628581     1.3878346780
    6      N      -0.1733433111     0.0209485848     0.1153001165
    7      H       1.5682528800     0.5102414918    -1.1840986792
    8      H      -1.2611900195    -1.2533929004    -1.1844919271
    9      H      -3.0391809783    -1.5602270670     0.8879935080
   10      H      -2.0462343713    -0.0469778848     2.9077076377
   11      H       0.2599649752     1.0650659032     1.9109467007
   12      C       3.3473226519     0.9542896796    -2.5503684839
   13      H       4.1781037583     1.1604967537    -3.1860960993
 ----------------------------------------------------------------

   12    -286.8706153108      6.51E-09 Convergence criterion met
 Total energy in the final basis set = -286.87061531
 Final energy is   -286.870615310753
 **  OPTIMIZATION CONVERGED  **

                    Orbital Energies (a.u.)
 --------------------------------------------------------------

 Alpha MOs
 -- Occupied --
-14.344 -10.262 -10.262 -10.221 -10.220 -10.183 -10.179  -0.981
 -0.790  -0.743  -0.734  -0.590  -0.584  -0.550  -0.538  -0.475
 -0.438  -0.431  -0.424  -0.411  -0.296  -0.275  -0.274  -0.273
 -0.262

 Beta MOs
 -- Occupied --
-14.347 -10.255 -10.255 -10.220 -10.219 -10.183 -10.179  -0.975
 -0.787  -0.734  -0.722  -0.584  -0.573  -0.550  -0.536  -0.475
 -0.434  -0.421  -0.405  -0.402  -0.298  -0.274  -0.274  -0.270

          Ground-State Mulliken Net Atomic Charges

     Atom                 Charge (a.u.)    Spin (a.u.)
  --------------------------------------------------------
      1 C                    -0.081869       0.000295
      2 C                    -0.034872       0.529656
      3 C                    -0.137865       0.082026
      4 C                    -0.131927       0.080262
      5 C                    -0.038020       0.531116
      6 N                    -0.180528      -0.160324
      7 H                     0.210292       0.001409
      8 H                     0.146095      -0.026304
      9 H                     0.143121      -0.005870
     10 H                     0.143134      -0.005827
     11 H                     0.145858      -0.026360
     12 C                    -0.366288      -0.000093
     13 H                     0.182870       0.000013
  --------------------------------------------------------
  Sum of atomic charges =    -0.000000

                    Cartesian Multipole Moments
 -----------------------------------------------------------------
    Charge (ESU x 10^10)
                -0.0000
    Dipole Moment (Debye)
         X      -2.4461      Y      -0.8043      Z       1.8467
       Tot       3.1687
    Quadrupole Moments (Debye-Ang)
        XX     -38.8526     XY       3.3191     YY     -42.5572
        XZ      -1.9116     YZ       2.4122     ZZ     -37.6856

 Total job time:  2785.88s(wall), 4986.29s(cpu)
        *  Thank you very much for using Q-Chem.  Have a nice day.  *
