 Q-Chem 5.0, Q-Chem, Inc., Pleasanton, CA (2017)
 Q-Chem 5.0.2 for Intel X86 EM64T Linux

User input:
--------------------------------------------------------------
$molecule
0 2
C        2.2576541234    1.0569036929   -1.8474739515
C       -1.2600449915   -0.5640554463   -0.2531037245
C       -2.0728314938   -1.0625525576    0.8515745175
C       -1.4385772061   -0.6409546384    1.9821717888
C       -0.2638735143    0.0873066155    1.5158647747
N       -0.1803995255    0.1220608733    0.1712480673
H        1.4383020765    0.8479428425   -1.1818177789
H       -1.4508163177   -0.6978185393   -1.3139724514
H       -2.9843070828   -1.6402157607    0.7674973373
H       -1.7227525770   -0.8006980195    3.0140360049
H        0.4914139655    0.5647498646    2.1328547438
C        3.1833518380    1.2692105125   -2.5918526379
H        4.0028807053    1.4581205605   -3.2470266903
$end

$rem
method                b3lyp
basis                 6-31g(d)
unrestricted          true
symmetry              off
sym_ignore            true
incdft                false
incfock               0
scf_convergence       8
thresh                14
jobtype               opt
scf_guess             core
scf_guess_mix         5
scf_algorithm         diis
max_scf_cycles        100
geom_opt_max_cycles   300
$end

--------------------------------------------------------------

   25    -286.8436624628      3.28E-09 Convergence criterion met
 Total energy in the final basis set = -286.84366246
   17    -286.8436640166      3.53E-09 Convergence criterion met
 Total energy in the final basis set = -286.84366402
   17    -286.8436666422      3.16E-09 Convergence criterion met
 Total energy in the final basis set = -286.84366664
   17    -286.8436678655      2.77E-09 Convergence criterion met
 Total energy in the final basis set = -286.84366787
   17    -286.8436705277      2.52E-09 Convergence criterion met
 Total energy in the final basis set = -286.84367053
   17    -286.8436718360      2.46E-09 Convergence criterion met
 Total energy in the final basis set = -286.84367184
   17    -286.8436754269      2.43E-09 Convergence criterion met
 Total energy in the final basis set = -286.84367543
   17    -286.8436777860      2.53E-09 Convergence criterion met
   17    -286.8437110831      3.27E-09 Convergence criterion met
 Total energy in the final basis set = -286.84371108
   17    -286.8437127248      3.28E-09 Convergence criterion met
 Total energy in the final basis set = -286.84371272
   17    -286.8437143811      3.05E-09 Convergence criterion met
 Total energy in the final basis set = -286.84371438
   17    -286.8437160312      2.95E-09 Convergence criterion met
 Total energy in the final basis set = -286.84371603
   17    -286.8437174249      2.78E-09 Convergence criterion met
 Total energy in the final basis set = -286.84371742
   17    -286.8437184393      2.58E-09 Convergence criterion met
 Total energy in the final basis set = -286.84371844

             Standard Nuclear Orientation (Angstroms)
    I     Atom           X                Y                Z
 ----------------------------------------------------------------
    1      C       2.2763377536     1.0174178095    -1.8296954736
    2      C      -1.2673111622    -0.5615943775    -0.2566472798
    3      C      -2.0762429098    -1.0561506418     0.8508952567
    4      C      -1.4347146378    -0.6370272402     1.9787365432
    5      C      -0.2647596642     0.0949717330     1.5066392231
    6      N      -0.1863765487     0.1257187167     0.1620241681
    7      H       1.4720991758     0.7815948277    -1.1538698384
    8      H      -1.4624754393    -0.7000419718    -1.3153183403
    9      H      -2.9883838449    -1.6332319355     0.7688576544
   10      H      -1.7119304993    -0.7996720888     3.0121763606
   11      H       0.4889022320     0.5803044316     2.1192668207
   12      C       3.1790188532     1.2790672772    -2.5863768734
   13      H       3.9758366916     1.5086434600    -3.2566882213
 ----------------------------------------------------------------

   17    -286.8437191745      2.44E-09 Convergence criterion met
 Total energy in the final basis set = -286.84371917
 Final energy is   -286.843719174481
 **  OPTIMIZATION CONVERGED  **

                    Orbital Energies (a.u.)
 --------------------------------------------------------------

 Alpha MOs
 -- Occupied --
-14.331 -10.253 -10.253 -10.211 -10.210 -10.165 -10.161  -0.971
 -0.781  -0.734  -0.717  -0.582  -0.576  -0.540  -0.529  -0.462
 -0.429  -0.423  -0.415  -0.403  -0.286  -0.264  -0.257  -0.257
 -0.253

 Beta MOs
 -- Occupied --
-14.334 -10.246 -10.245 -10.210 -10.209 -10.165 -10.161  -0.965
 -0.778  -0.717  -0.713  -0.576  -0.565  -0.539  -0.527  -0.462
 -0.426  -0.413  -0.397  -0.392  -0.287  -0.261  -0.257  -0.257

          Ground-State Mulliken Net Atomic Charges

     Atom                 Charge (a.u.)    Spin (a.u.)
  --------------------------------------------------------
      1 C                    -0.105761      -0.000212
      2 C                     0.071120       0.534314
      3 C                    -0.154289       0.080164
      4 C                    -0.156259       0.082446
      5 C                     0.071944       0.533797
      6 N                    -0.413514      -0.167752
      7 H                     0.230024       0.001436
      8 H                     0.163927      -0.026240
      9 H                     0.152550      -0.005789
     10 H                     0.152488      -0.005913
     11 H                     0.163344      -0.026210
     12 C                    -0.348714      -0.000058
     13 H                     0.173141       0.000016
  --------------------------------------------------------
  Sum of atomic charges =     0.000000

                    Cartesian Multipole Moments
 -----------------------------------------------------------------
    Charge (ESU x 10^10)
                 0.0000
    Dipole Moment (Debye)
         X      -2.2735      Y      -1.2281      Z       1.8233
       Tot       3.1625
    Quadrupole Moments (Debye-Ang)
        XX     -37.3669     XY       2.8240     YY     -42.1524
        XZ      -0.6415     YZ       0.6084     ZZ     -35.1497

 Total job time:  1281.69s(wall), 1259.53s(cpu)
        *  Thank you very much for using Q-Chem.  Have a nice day.  *
