 Q-Chem 5.0, Q-Chem, Inc., Pleasanton, CA (2017)
 Q-Chem 5.0.2 for Intel X86 EM64T Linux

User input:
--------------------------------------------------------------
$molecule
0 2
C        1.0182254745    0.4598106110   -1.4022864946
C       -1.0955307097   -0.5215895079   -0.5842454049
C       -1.6693171427   -0.7768051161    0.6358831098
C       -0.7533893595   -0.3293668196    1.6373208423
C        0.3460334653    0.1832789227    0.9933749780
N        0.1409794024    0.0681610131   -0.3703629470
H        0.6075246801    0.2601118465   -2.3914448729
H       -1.4453017255   -0.7022057706   -1.5907590313
H       -2.6369128068   -1.2322000025    0.7978683765
H       -0.8902570383   -0.3789841273    2.7093083715
H        1.2549405289    0.6213926643    1.3773203071
C        2.2091632495    1.0082448213   -1.2793551747
H        2.9138419820    1.3401514649   -0.5326220593
$end

$rem
method                b3lyp
basis                 6-31g(d)
unrestricted          true
symmetry              off
sym_ignore            true
incdft                false
incfock               0
scf_convergence       8
thresh                14
jobtype               opt
scf_guess             core
scf_guess_mix         5
scf_algorithm         diis
max_scf_cycles        100
geom_opt_max_cycles   300
$end

--------------------------------------------------------------

   21    -286.8707992435      7.03E-09 Convergence criterion met
 Total energy in the final basis set = -286.87079924

             Standard Nuclear Orientation (Angstroms)
    I     Atom           X                Y                Z
 ----------------------------------------------------------------
    1      C       1.0183954813     0.4593715561    -1.4023300505
    2      C      -1.0956417493    -0.5218607604    -0.5843778590
    3      C      -1.6693247841    -0.7765667650     0.6357657213
    4      C      -0.7532403170    -0.3288409456     1.6371248331
    5      C       0.3467228349     0.1823739553     0.9932490352
    6      N       0.1415295271     0.0666400021    -0.3703470288
    7      H       0.6079202841     0.2596152290    -2.3915183505
    8      H      -1.4458104655    -0.7021858211    -1.5908056168
    9      H      -2.6371995227    -1.2312635374     0.7978919189
   10      H      -0.8903867239    -0.3777068786     2.7090939850
   11      H       1.2563384701     0.6192877005     1.3771773377
   12      C       2.2085836599     1.0094464343    -1.2793170974
   13      H       2.9121133053     1.3416898307    -0.5316068277
 ----------------------------------------------------------------

   16    -286.8708000300      3.54E-09 Convergence criterion met
 Total energy in the final basis set = -286.87080003
 Final energy is   -286.870800030018
 **  OPTIMIZATION CONVERGED  **

                    Orbital Energies (a.u.)
 --------------------------------------------------------------

 Alpha MOs
 -- Occupied --
-14.394 -10.241 -10.214 -10.206 -10.204 -10.173 -10.172  -0.989
 -0.817  -0.737  -0.722  -0.618  -0.574  -0.547  -0.533  -0.459
 -0.436  -0.425  -0.415  -0.386  -0.376  -0.304  -0.255  -0.226
 -0.213

 Beta MOs
 -- Occupied --
-14.393 -10.243 -10.206 -10.204 -10.199 -10.173 -10.172  -0.987
 -0.812  -0.726  -0.718  -0.605  -0.571  -0.545  -0.524  -0.452
 -0.432  -0.425  -0.413  -0.385  -0.375  -0.301  -0.217  -0.213

          Ground-State Mulliken Net Atomic Charges

     Atom                 Charge (a.u.)    Spin (a.u.)
  --------------------------------------------------------
      1 C                     0.045883      -0.143037
      2 C                     0.029078       0.001766
      3 C                    -0.192625      -0.004862
      4 C                    -0.186353      -0.008473
      5 C                     0.035978       0.000798
      6 N                    -0.402983       0.042139
      7 H                     0.163427       0.034855
      8 H                     0.147026       0.000212
      9 H                     0.129513       0.001773
     10 H                     0.129511       0.001029
     11 H                     0.145428       0.001085
     12 C                    -0.213802       1.079706
     13 H                     0.169919      -0.006993
  --------------------------------------------------------
  Sum of atomic charges =     0.000000

                    Cartesian Multipole Moments
 -----------------------------------------------------------------
    Charge (ESU x 10^10)
                 0.0000
    Dipole Moment (Debye)
         X       0.3032      Y       0.1386      Z      -0.3019
       Tot       0.4497
    Quadrupole Moments (Debye-Ang)
        XX     -38.5839     XY       2.9817     YY     -43.4524
        XZ       2.4938     YZ       1.2638     ZZ     -37.2470

 Total job time:  108.67s(wall), 112.08s(cpu)
        *  Thank you very much for using Q-Chem.  Have a nice day.  *
