 Q-Chem 5.0, Q-Chem, Inc., Pleasanton, CA (2017)
 Q-Chem 5.0.2 for Intel X86 EM64T Linux

User input:
--------------------------------------------------------------
$molecule
0 2
C        1.3303144407    0.6754004236   -1.4599977822
C       -1.0848264040   -0.5291237704   -0.4892991065
C       -1.7689459615   -0.8849933422    0.6653610171
C       -1.0031380540   -0.4349049619    1.7706886881
C        0.1326188787    0.1677928015    1.2545519185
N        0.0703681642    0.1230069136   -0.1138684605
H        0.5151428669    0.5052420889   -2.1324158606
H       -1.3864344996   -0.6887794939   -1.5173617589
H       -2.7233176010   -1.4022172303    0.7101716764
H       -1.2390931498   -0.5569865314    2.8215010080
H        0.9658951533    0.6315059261    1.7646334970
C        2.5173674171    1.0384098106   -1.5918501756
H        3.5184905871    1.3737417236   -1.7925511668
$end

$rem
method                b3lyp
basis                 6-31g(d)
unrestricted          true
symmetry              off
sym_ignore            true
incdft                false
incfock               0
scf_convergence       8
thresh                14
jobtype               sp
scf_guess             core
scf_guess_mix         5
scf_algorithm         diis
max_scf_cycles        100
$end

--------------------------------------------------------------

             Standard Nuclear Orientation (Angstroms)
    I     Atom           X                Y                Z
 ----------------------------------------------------------------
    1      C       1.3303144407     0.6754004236    -1.4599977822
    2      C      -1.0848264040    -0.5291237704    -0.4892991065
    3      C      -1.7689459615    -0.8849933422     0.6653610171
    4      C      -1.0031380540    -0.4349049619     1.7706886881
    5      C       0.1326188787     0.1677928015     1.2545519185
    6      N       0.0703681642     0.1230069136    -0.1138684605
    7      H       0.5151428669     0.5052420889    -2.1324158606
    8      H      -1.3864344996    -0.6887794939    -1.5173617589
    9      H      -2.7233176010    -1.4022172303     0.7101716764
   10      H      -1.2390931498    -0.5569865314     2.8215010080
   11      H       0.9658951533     0.6315059261     1.7646334970
   12      C       2.5173674171     1.0384098106    -1.5918501756
   13      H       3.5184905871     1.3737417236    -1.7925511668
 ----------------------------------------------------------------

   24    -286.7958360899      6.55E-09 Convergence criterion met
 Total energy in the final basis set = -286.79583609

                    Orbital Energies (a.u.)
 --------------------------------------------------------------

 Alpha MOs
 -- Occupied --
-14.379 -10.261 -10.249 -10.191 -10.188 -10.156 -10.155  -0.947
 -0.803  -0.735  -0.700  -0.609  -0.549  -0.535  -0.527  -0.485
 -0.408  -0.391  -0.384  -0.371  -0.356  -0.323  -0.259  -0.223
 -0.192

 Beta MOs
 -- Occupied --
-14.370 -10.263 -10.238 -10.191 -10.188 -10.156 -10.154  -0.936
 -0.785  -0.726  -0.698  -0.595  -0.545  -0.532  -0.517  -0.475
 -0.405  -0.381  -0.370  -0.365  -0.350  -0.316  -0.218  -0.192

          Ground-State Mulliken Net Atomic Charges

     Atom                 Charge (a.u.)    Spin (a.u.)
  --------------------------------------------------------
      1 C                    -0.077650      -0.205951
      2 C                     0.016160      -0.002477
      3 C                    -0.180594       0.012231
      4 C                    -0.187876       0.006247
      5 C                     0.026860       0.004933
      6 N                    -0.408538       0.356925
      7 H                     0.195859       0.055639
      8 H                     0.130540       0.002033
      9 H                     0.118566       0.004556
     10 H                     0.118834       0.005871
     11 H                     0.131244       0.002466
     12 C                    -0.104726       0.796007
     13 H                     0.221321      -0.038481
  --------------------------------------------------------
  Sum of atomic charges =     0.000000

                    Cartesian Multipole Moments
 -----------------------------------------------------------------
    Charge (ESU x 10^10)
                -0.0000
    Dipole Moment (Debye)
         X       2.4593      Y       1.0701      Z      -2.1214
       Tot       3.4196
    Quadrupole Moments (Debye-Ang)
        XX     -32.1629     XY       5.5105     YY     -42.7067
        XZ      -2.7784     YZ      -1.2808     ZZ     -35.3167

 Total job time:  86.00s(wall), 59.37s(cpu)
        *  Thank you very much for using Q-Chem.  Have a nice day.  *
