 Q-Chem 5.0, Q-Chem, Inc., Pleasanton, CA (2017)
 Q-Chem 5.0.2 for Intel X86 EM64T Linux

User input:
--------------------------------------------------------------
$molecule
0 2
C        1.2105802217    0.8091903406   -1.6761692352
C       -1.2282908505   -0.4906158459   -0.5531545176
C       -1.4279647333   -1.0939078703    0.7099386914
C       -0.6163792518   -0.3812460730    1.6407290983
C        0.0215904412    0.5915263488    0.9110363705
N       -0.4209531113    0.5676970579   -0.4323858610
H        0.6443937301    1.1575920432   -2.5142046045
H       -1.7164153186   -0.7267874143   -1.4912121223
H       -2.1477502011   -1.8721494116    0.9370089246
H       -0.5245303127   -0.5716559601    2.7019297763
H        0.7564817336    1.3247582114    1.2136155470
C        2.2716760991    0.5116414493   -1.1232987459
H        3.0220034107    0.1920514965   -0.4342697475
$end

$rem
method                b3lyp
basis                 6-31+g(d,p)
unrestricted          true
symmetry              off
sym_ignore            true
incdft                false
incfock               0
scf_convergence       6
thresh                14
jobtype               sp
scf_guess             read
scf_algorithm         diis
max_scf_cycles        100
stability_analysis    true
max_cis_cycles        100
cis_n_roots           4
$end

--------------------------------------------------------------

             Standard Nuclear Orientation (Angstroms)
    I     Atom           X                Y                Z
 ----------------------------------------------------------------
    1      C       1.2105802217     0.8091903406    -1.6761692352
    2      C      -1.2282908505    -0.4906158459    -0.5531545176
    3      C      -1.4279647333    -1.0939078703     0.7099386914
    4      C      -0.6163792518    -0.3812460730     1.6407290983
    5      C       0.0215904412     0.5915263488     0.9110363705
    6      N      -0.4209531113     0.5676970579    -0.4323858610
    7      H       0.6443937301     1.1575920432    -2.5142046045
    8      H      -1.7164153186    -0.7267874143    -1.4912121223
    9      H      -2.1477502011    -1.8721494116     0.9370089246
   10      H      -0.5245303127    -0.5716559601     2.7019297763
   11      H       0.7564817336     1.3247582114     1.2136155470
   12      C       2.2716760991     0.5116414493    -1.1232987459
   13      H       3.0220034107     0.1920514965    -0.4342697475
 ----------------------------------------------------------------

    2    -286.8359424659      7.09E-09 Convergence criterion met
 Total energy in the final basis set = -286.83594247

         TDDFT/TDA Excitation Energies
 ---------------------------------------------------

 Excited state   1: excitation energy (eV) =    1.1232
 Total energy for state  1:                  -286.79466744 au
    <S**2>     :  0.7798
    Trans. Mom.:  0.6303 X   0.1724 Y  -0.4675 Z
    Strength   :     0.0177637174
    D( 23) --> S(  1) amplitude = -0.3151 beta
    D( 24) --> S(  1) amplitude =  0.9328 beta

 Excited state   2: excitation energy (eV) =    1.8339
 Total energy for state  2:                  -286.76854950 au
    <S**2>     :  0.7805
    Trans. Mom.:  0.8440 X   0.3782 Y  -0.6151 Z
    Strength   :     0.0554281949
    D( 21) --> S(  1) amplitude =  0.2133 beta
    D( 23) --> S(  1) amplitude =  0.9168 beta
    D( 24) --> S(  1) amplitude =  0.2762 beta

 Excited state   3: excitation energy (eV) =    2.9507
 Total energy for state  3:                  -286.72750469 au
    <S**2>     :  0.7858
    Trans. Mom.:  0.1910 X   0.1430 Y  -0.0863 Z
    Strength   :     0.0046544038
    D( 22) --> S(  1) amplitude =  0.9898 beta

 Excited state   4: excitation energy (eV) =    3.9043
 Total energy for state  4:                  -286.69246126 au
    <S**2>     :  0.8533
    Trans. Mom.: -0.7618 X  -0.3234 Y   0.4658 Z
    Strength   :     0.0862712581
    D( 24) --> V(  1) amplitude = -0.2914 alpha
    D( 21) --> S(  1) amplitude =  0.8966 beta

 ---------------------------------------------------

                    Orbital Energies (a.u.)
 --------------------------------------------------------------

 Alpha MOs
 -- Occupied --
-14.363 -10.230 -10.223 -10.214 -10.213 -10.210 -10.187  -0.963
 -0.781  -0.759  -0.722  -0.584  -0.570  -0.555  -0.523  -0.495
 -0.421  -0.417  -0.403  -0.391  -0.346  -0.304  -0.270  -0.239
 -0.225

 Beta MOs
 -- Occupied --
-14.356 -10.231 -10.219 -10.214 -10.208 -10.204 -10.188  -0.952
 -0.772  -0.750  -0.713  -0.578  -0.565  -0.551  -0.517  -0.492
 -0.414  -0.403  -0.397  -0.387  -0.331  -0.300  -0.254  -0.221

          Ground-State Mulliken Net Atomic Charges

     Atom                 Charge (a.u.)    Spin (a.u.)
  --------------------------------------------------------
      1 C                    -0.149518      -0.098047
      2 C                    -0.070392      -0.088034
      3 C                    -0.111057       0.428399
      4 C                    -0.013122      -0.143031
      5 C                    -0.310903       0.267892
      6 N                    -0.133053       0.270161
      7 H                     0.172754       0.009381
      8 H                     0.125389       0.001875
      9 H                     0.132966      -0.017003
     10 H                     0.128551       0.004136
     11 H                     0.135709      -0.012145
     12 C                    -0.083600       0.390395
     13 H                     0.176277      -0.013979
  --------------------------------------------------------
  Sum of atomic charges =    -0.000000

                    Cartesian Multipole Moments
 -----------------------------------------------------------------
    Charge (ESU x 10^10)
                -0.0000
    Dipole Moment (Debye)
         X       0.2829      Y      -0.6536      Z       0.2186
       Tot       0.7450
    Quadrupole Moments (Debye-Ang)
        XX     -39.5124     XY       2.7238     YY     -43.0875
        XZ       3.0703     YZ      -0.7750     ZZ     -38.2918

 Total job time:  308.51s(wall), 187.05s(cpu)
        *  Thank you very much for using Q-Chem.  Have a nice day.  *
