 Q-Chem 5.0, Q-Chem, Inc., Pleasanton, CA (2017)
 Q-Chem 5.0.2 for Intel X86 EM64T Linux

User input:
--------------------------------------------------------------
$molecule
0 2
C        1.3303144407    0.6754004236   -1.4599977822
C       -1.0848264040   -0.5291237704   -0.4892991065
C       -1.7689459615   -0.8849933422    0.6653610171
C       -1.0031380540   -0.4349049619    1.7706886881
C        0.1326188787    0.1677928015    1.2545519185
N        0.0703681642    0.1230069136   -0.1138684605
H        0.5151428669    0.5052420889   -2.1324158606
H       -1.3864344996   -0.6887794939   -1.5173617589
H       -2.7233176010   -1.4022172303    0.7101716764
H       -1.2390931498   -0.5569865314    2.8215010080
H        0.9658951533    0.6315059261    1.7646334970
C        2.5173674171    1.0384098106   -1.5918501756
H        3.5184905871    1.3737417236   -1.7925511668
$end

$rem
method                b3lyp
basis                 6-31g(d)
unrestricted          true
symmetry              off
sym_ignore            true
incdft                false
incfock               0
scf_convergence       8
thresh                14
jobtype               freq
scf_guess             read
scf_algorithm         diis
max_scf_cycles        100
$end

--------------------------------------------------------------

             Standard Nuclear Orientation (Angstroms)
    I     Atom           X                Y                Z
 ----------------------------------------------------------------
    1      C       1.3303144407     0.6754004236    -1.4599977822
    2      C      -1.0848264040    -0.5291237704    -0.4892991065
    3      C      -1.7689459615    -0.8849933422     0.6653610171
    4      C      -1.0031380540    -0.4349049619     1.7706886881
    5      C       0.1326188787     0.1677928015     1.2545519185
    6      N       0.0703681642     0.1230069136    -0.1138684605
    7      H       0.5151428669     0.5052420889    -2.1324158606
    8      H      -1.3864344996    -0.6887794939    -1.5173617589
    9      H      -2.7233176010    -1.4022172303     0.7101716764
   10      H      -1.2390931498    -0.5569865314     2.8215010080
   11      H       0.9658951533     0.6315059261     1.7646334970
   12      C       2.5173674171     1.0384098106    -1.5918501756
   13      H       3.5184905871     1.3737417236    -1.7925511668
 ----------------------------------------------------------------

    2    -286.7958360841      1.66E-09 Convergence criterion met
 Total energy in the final basis set = -286.79583608

                    Orbital Energies (a.u.)
 --------------------------------------------------------------

 Alpha MOs
 -- Occupied --
-14.379 -10.261 -10.249 -10.191 -10.188 -10.156 -10.155  -0.947
 -0.803  -0.735  -0.700  -0.609  -0.549  -0.535  -0.527  -0.485
 -0.408  -0.391  -0.384  -0.371  -0.356  -0.323  -0.259  -0.223
 -0.192

 Beta MOs
 -- Occupied --
-14.370 -10.263 -10.238 -10.191 -10.188 -10.156 -10.154  -0.936
 -0.785  -0.726  -0.698  -0.595  -0.545  -0.532  -0.517  -0.475
 -0.405  -0.381  -0.370  -0.365  -0.350  -0.316  -0.218  -0.192

          Ground-State Mulliken Net Atomic Charges

     Atom                 Charge (a.u.)    Spin (a.u.)
  --------------------------------------------------------
      1 C                    -0.077650      -0.205960
      2 C                     0.016160      -0.002477
      3 C                    -0.180594       0.012231
      4 C                    -0.187876       0.006247
      5 C                     0.026860       0.004932
      6 N                    -0.408538       0.356925
      7 H                     0.195859       0.055640
      8 H                     0.130540       0.002033
      9 H                     0.118567       0.004556
     10 H                     0.118834       0.005871
     11 H                     0.131244       0.002467
     12 C                    -0.104726       0.796016
     13 H                     0.221321      -0.038481
  --------------------------------------------------------
  Sum of atomic charges =     0.000000

                    Cartesian Multipole Moments
 -----------------------------------------------------------------
    Charge (ESU x 10^10)
                -0.0000
    Dipole Moment (Debye)
         X       2.4593      Y       1.0701      Z      -2.1214
       Tot       3.4196
    Quadrupole Moments (Debye-Ang)
        XX     -32.1629     XY       5.5105     YY     -42.7067
        XZ      -2.7784     YZ      -1.2808     ZZ     -35.3167

 Frequency:      -493.61                -279.07                 -27.61
 Force Cnst:      1.0868                 0.0837                 0.0029
 Red. Mass:       7.5705                 1.8236                 6.3750
 IR Intens:        0.183                  2.677                  3.894
 Frequency:       152.03                 372.04                 418.98
 Force Cnst:      0.0557                 0.0965                 0.4988
 Red. Mass:       4.0930                 1.1834                 4.8227
 IR Intens:        0.532                 35.858                  8.675
 Frequency:       462.76                 527.69                 590.00
 Force Cnst:      0.4332                 0.2279                 0.4513
 Red. Mass:       3.4338                 1.3892                 2.2006
 IR Intens:       14.804                 37.962                  0.929
 Frequency:       629.88                 691.91                 706.37
 Force Cnst:      0.8947                 0.3189                 0.3295
 Red. Mass:       3.8274                 1.1307                 1.1210
 IR Intens:        0.727                107.964                 41.849
 Frequency:       788.10                 796.17                 850.69
 Force Cnst:      1.0741                 0.5197                 0.5842
 Red. Mass:       2.9352                 1.3915                 1.3701
 IR Intens:       12.404                  2.085                  2.057
 Frequency:       864.80                1007.75                1083.90
 Force Cnst:      1.5648                 1.0067                 0.9645
 Red. Mass:       3.5513                 1.6825                 1.3934
 IR Intens:        0.452                 20.381                 27.177
 Frequency:      1091.56                1096.65                1179.83
 Force Cnst:      0.9999                 0.8535                 2.2728
 Red. Mass:       1.4243                 1.2045                 2.7712
 IR Intens:       10.110                 20.683                 10.539
 Frequency:      1286.62                1360.59                1416.83
 Force Cnst:      1.3059                 4.9249                 5.5221
 Red. Mass:       1.3389                 4.5153                 4.6689
 IR Intens:        7.411                 15.195                  0.464
 Frequency:      1478.66                1533.80                1768.63
 Force Cnst:      3.0730                 5.2305                 8.8215
 Red. Mass:       2.3855                 3.7736                 4.7865
 IR Intens:       10.478                  2.349                  0.633
 Frequency:      3209.09                3237.27                3246.73
 Force Cnst:      6.6126                 6.7492                 6.8225
 Red. Mass:       1.0898                 1.0931                 1.0985
 IR Intens:        5.793                  5.258                  7.546
 Frequency:      3270.83                3341.16                3409.24
 Force Cnst:      6.9303                 7.1597                 7.8413
 Red. Mass:       1.0995                 1.0885                 1.1450
 IR Intens:        8.368                 55.226                 56.315

 STANDARD THERMODYNAMIC QUANTITIES AT   298.15 K  AND     1.00 ATM

   This Molecule has  3 Imaginary Frequencies
   Zero point vibrational energy:       59.857 kcal/mol

   Atom    1 Element C  Has Mass   12.00000
   Atom    2 Element C  Has Mass   12.00000
   Atom    3 Element C  Has Mass   12.00000
   Atom    4 Element C  Has Mass   12.00000
   Atom    5 Element C  Has Mass   12.00000
   Atom    6 Element N  Has Mass   14.00307
   Atom    7 Element H  Has Mass    1.00783
   Atom    8 Element H  Has Mass    1.00783
   Atom    9 Element H  Has Mass    1.00783
   Atom   10 Element H  Has Mass    1.00783
   Atom   11 Element H  Has Mass    1.00783
   Atom   12 Element C  Has Mass   12.00000
   Atom   13 Element H  Has Mass    1.00783
   Molecular Mass:    92.050050 amu
   Principal axes and moments of inertia in amu*Bohr^2:
                             1           2           3
    Eigenvalues --      214.30219  1101.26271  1311.76848
          X               0.74352     0.51242    -0.42965
          Y               0.33465     0.27114     0.90249
          Z              -0.57895     0.81481    -0.03012
   Rotational Symmetry Number is   1
   The Molecule is an Asymmetric Top
   Translational Enthalpy:        0.889 kcal/mol
   Rotational Enthalpy:           0.889 kcal/mol
   Vibrational Enthalpy:         61.564 kcal/mol
   gas constant (RT):             0.592 kcal/mol
   Translational Entropy:        39.471  cal/mol.K
   Rotational Entropy:           27.228  cal/mol.K
   Vibrational Entropy:           8.628  cal/mol.K

   Total Enthalpy:               63.934 kcal/mol
   Total Entropy:                75.327  cal/mol.K

 Total job time:  269.08s(wall), 231.19s(cpu)
        *  Thank you very much for using Q-Chem.  Have a nice day.  *
