 Q-Chem 5.0, Q-Chem, Inc., Pleasanton, CA (2017)
 Q-Chem 5.0.2 for Intel X86 EM64T Linux

User input:
--------------------------------------------------------------
$molecule
0 2
C        1.2105802217    0.8091903406   -1.6761692352
C       -1.2282908505   -0.4906158459   -0.5531545176
C       -1.4279647333   -1.0939078703    0.7099386914
C       -0.6163792518   -0.3812460730    1.6407290983
C        0.0215904412    0.5915263488    0.9110363705
N       -0.4209531113    0.5676970579   -0.4323858610
H        0.6443937301    1.1575920432   -2.5142046045
H       -1.7164153186   -0.7267874143   -1.4912121223
H       -2.1477502011   -1.8721494116    0.9370089246
H       -0.5245303127   -0.5716559601    2.7019297763
H        0.7564817336    1.3247582114    1.2136155470
C        2.2716760991    0.5116414493   -1.1232987459
H        3.0220034107    0.1920514965   -0.4342697475
$end

$rem
method                b3lyp
basis                 6-31+g(d,p)
unrestricted          true
symmetry              off
sym_ignore            true
incdft                false
incfock               0
scf_convergence       8
thresh                14
jobtype               ts
scf_guess             read
scf_algorithm         diis
max_scf_cycles        100
geom_opt_max_cycles   500
geom_opt_dmax         100
geom_opt_tol_gradient 10
geom_opt_hessian      read
$end

--------------------------------------------------------------

    2    -286.8359424659      1.36E-09 Convergence criterion met
 Total energy in the final basis set = -286.83594247
   15    -286.8359943580      5.99E-09 Convergence criterion met
 Total energy in the final basis set = -286.83599436
   13    -286.8359952663      4.47E-09 Convergence criterion met
 Total energy in the final basis set = -286.83599527

             Standard Nuclear Orientation (Angstroms)
    I     Atom           X                Y                Z
 ----------------------------------------------------------------
    1      C       1.2076267962     0.8120801738    -1.6816355089
    2      C      -1.2199747155    -0.4923174217    -0.5538801930
    3      C      -1.4264404055    -1.0948071516     0.7093672428
    4      C      -0.6232100535    -0.3773837501     1.6460982020
    5      C       0.0190535092     0.5984753126     0.9199072976
    6      N      -0.4145213501     0.5694230743    -0.4260649567
    7      H       0.6347741315     1.1700098895    -2.5107483223
    8      H      -1.6965260714    -0.7339998728    -1.4956328242
    9      H      -2.1427726353    -1.8770138428     0.9309664136
   10      H      -0.5383328335    -0.5644637078     2.7079337036
   11      H       0.7469333948     1.3343116258     1.2312479331
   12      C       2.2683823995     0.5003980097    -1.1306603500
   13      H       3.0294496906     0.1733820337    -0.4573350636
 ----------------------------------------------------------------

    8    -286.8359952760      6.09E-09 Convergence criterion met
 Total energy in the final basis set = -286.83599528
 Final energy is   -286.835995276021
 **  OPTIMIZATION CONVERGED  **

                    Orbital Energies (a.u.)
 --------------------------------------------------------------

 Alpha MOs
 -- Occupied --
-14.364 -10.231 -10.222 -10.215 -10.213 -10.209 -10.187  -0.962
 -0.781  -0.758  -0.722  -0.585  -0.570  -0.555  -0.522  -0.496
 -0.421  -0.417  -0.402  -0.391  -0.346  -0.304  -0.269  -0.239
 -0.225

 Beta MOs
 -- Occupied --
-14.357 -10.232 -10.218 -10.214 -10.210 -10.204 -10.188  -0.951
 -0.771  -0.749  -0.713  -0.579  -0.564  -0.551  -0.516  -0.493
 -0.414  -0.402  -0.396  -0.387  -0.330  -0.300  -0.253  -0.220

          Ground-State Mulliken Net Atomic Charges

     Atom                 Charge (a.u.)    Spin (a.u.)
  --------------------------------------------------------
      1 C                    -0.148766      -0.099951
      2 C                    -0.074800      -0.091797
      3 C                    -0.110265       0.423294
      4 C                    -0.018539      -0.139363
      5 C                    -0.305905       0.260364
      6 N                    -0.132286       0.277199
      7 H                     0.173503       0.009549
      8 H                     0.125405       0.002170
      9 H                     0.132614      -0.016703
     10 H                     0.128228       0.004082
     11 H                     0.135669      -0.011771
     12 C                    -0.082277       0.397448
     13 H                     0.177420      -0.014521
  --------------------------------------------------------
  Sum of atomic charges =     0.000000

                    Cartesian Multipole Moments
 -----------------------------------------------------------------
    Charge (ESU x 10^10)
                 0.0000
    Dipole Moment (Debye)
         X       0.3463      Y      -0.6301      Z       0.1614
       Tot       0.7369
    Quadrupole Moments (Debye-Ang)
        XX     -39.4581     XY       2.6965     YY     -43.0436
        XZ       2.9846     YZ      -0.7925     ZZ     -38.2763

 Total job time:  131.46s(wall), 253.64s(cpu)
        *  Thank you very much for using Q-Chem.  Have a nice day.  *
