 Q-Chem 5.0, Q-Chem, Inc., Pleasanton, CA (2017)
 Q-Chem 5.0.2 for Intel X86 EM64T Linux

User input:
--------------------------------------------------------------
$molecule
0 2
C        1.2105802217    0.8091903406   -1.6761692352
C       -1.2282908505   -0.4906158459   -0.5531545176
C       -1.4279647333   -1.0939078703    0.7099386914
C       -0.6163792518   -0.3812460730    1.6407290983
C        0.0215904412    0.5915263488    0.9110363705
N       -0.4209531113    0.5676970579   -0.4323858610
H        0.6443937301    1.1575920432   -2.5142046045
H       -1.7164153186   -0.7267874143   -1.4912121223
H       -2.1477502011   -1.8721494116    0.9370089246
H       -0.5245303127   -0.5716559601    2.7019297763
H        0.7564817336    1.3247582114    1.2136155470
C        2.2716760991    0.5116414493   -1.1232987459
H        3.0220034107    0.1920514965   -0.4342697475
$end

$rem
method                b3lyp
basis                 6-31+g(d,p)
unrestricted          true
symmetry              off
sym_ignore            true
incdft                false
incfock               0
scf_convergence       8
thresh                14
jobtype               freq
scf_guess             read
scf_algorithm         diis
max_scf_cycles        100
$end

--------------------------------------------------------------

             Standard Nuclear Orientation (Angstroms)
    I     Atom           X                Y                Z
 ----------------------------------------------------------------
    1      C       1.2105802217     0.8091903406    -1.6761692352
    2      C      -1.2282908505    -0.4906158459    -0.5531545176
    3      C      -1.4279647333    -1.0939078703     0.7099386914
    4      C      -0.6163792518    -0.3812460730     1.6407290983
    5      C       0.0215904412     0.5915263488     0.9110363705
    6      N      -0.4209531113     0.5676970579    -0.4323858610
    7      H       0.6443937301     1.1575920432    -2.5142046045
    8      H      -1.7164153186    -0.7267874143    -1.4912121223
    9      H      -2.1477502011    -1.8721494116     0.9370089246
   10      H      -0.5245303127    -0.5716559601     2.7019297763
   11      H       0.7564817336     1.3247582114     1.2136155470
   12      C       2.2716760991     0.5116414493    -1.1232987459
   13      H       3.0220034107     0.1920514965    -0.4342697475
 ----------------------------------------------------------------

    2    -286.8359424658      3.34E-09 Convergence criterion met
 Total energy in the final basis set = -286.83594247

                    Orbital Energies (a.u.)
 --------------------------------------------------------------

 Alpha MOs
 -- Occupied --
-14.363 -10.230 -10.223 -10.214 -10.213 -10.210 -10.187  -0.963
 -0.781  -0.759  -0.722  -0.584  -0.570  -0.555  -0.523  -0.495
 -0.421  -0.417  -0.403  -0.391  -0.346  -0.304  -0.270  -0.239
 -0.225

 Beta MOs
 -- Occupied --
-14.356 -10.231 -10.219 -10.214 -10.208 -10.204 -10.188  -0.952
 -0.772  -0.750  -0.713  -0.578  -0.565  -0.551  -0.517  -0.492
 -0.414  -0.403  -0.397  -0.387  -0.331  -0.300  -0.254  -0.221

          Ground-State Mulliken Net Atomic Charges

     Atom                 Charge (a.u.)    Spin (a.u.)
  --------------------------------------------------------
      1 C                    -0.149518      -0.098047
      2 C                    -0.070392      -0.088033
      3 C                    -0.111057       0.428398
      4 C                    -0.013122      -0.143031
      5 C                    -0.310903       0.267891
      6 N                    -0.133053       0.270161
      7 H                     0.172754       0.009381
      8 H                     0.125389       0.001875
      9 H                     0.132966      -0.017003
     10 H                     0.128551       0.004136
     11 H                     0.135709      -0.012145
     12 C                    -0.083600       0.390396
     13 H                     0.176277      -0.013979
  --------------------------------------------------------
  Sum of atomic charges =    -0.000000

                    Cartesian Multipole Moments
 -----------------------------------------------------------------
    Charge (ESU x 10^10)
                -0.0000
    Dipole Moment (Debye)
         X       0.2829      Y      -0.6536      Z       0.2186
       Tot       0.7450
    Quadrupole Moments (Debye-Ang)
        XX     -39.5124     XY       2.7238     YY     -43.0875
        XZ       3.0703     YZ      -0.7750     ZZ     -38.2918

 Frequency:      -511.92                  63.87                  87.63
 Force Cnst:      1.3682                 0.0063                 0.0180
 Red. Mass:       8.8613                 2.6122                 3.9694
 IR Intens:      272.686                  0.626                  1.283
 Frequency:       159.37                 301.68                 500.16
 Force Cnst:      0.0537                 0.2004                 0.2015
 Red. Mass:       3.5879                 3.7368                 1.3672
 IR Intens:        1.491                  2.638                157.308
 Frequency:       548.33                 612.41                 643.48
 Force Cnst:      0.4378                 0.7176                 0.4134
 Red. Mass:       2.4717                 3.2474                 1.6944
 IR Intens:        2.766                 11.808                  1.704
 Frequency:       713.56                 756.05                 776.98
 Force Cnst:      0.4853                 0.4373                 0.4065
 Red. Mass:       1.6178                 1.2984                 1.1429
 IR Intens:       52.950                 19.563                 72.268
 Frequency:       806.82                 847.34                 861.18
 Force Cnst:      1.2590                 0.5770                 0.6507
 Red. Mass:       3.2828                 1.3640                 1.4891
 IR Intens:      270.179                  2.620                131.863
 Frequency:       878.22                 885.07                 996.78
 Force Cnst:      0.8019                 0.9219                 0.8883
 Red. Mass:       1.7646                 1.9975                 1.5174
 IR Intens:       12.670                 16.799                 38.802
 Frequency:      1015.95                1081.63                1135.72
 Force Cnst:      1.0503                 0.9630                 2.5080
 Red. Mass:       1.7271                 1.3970                 3.3002
 IR Intens:       21.766                 20.495                 70.602
 Frequency:      1234.31                1304.01                1354.52
 Force Cnst:      1.8157                 1.5342                 3.2124
 Red. Mass:       2.0227                 1.5313                 2.9717
 IR Intens:      166.522                 46.899                 21.001
 Frequency:      1445.65                1517.85                1900.39
 Force Cnst:      3.0083                 4.6800                 9.2789
 Red. Mass:       2.4432                 3.4478                 4.3607
 IR Intens:      141.557                 31.159                 43.716
 Frequency:      3221.43                3237.21                3248.22
 Force Cnst:      6.6525                 6.7686                 6.7954
 Red. Mass:       1.0880                 1.0962                 1.0931
 IR Intens:        3.827                  8.891                 11.268
 Frequency:      3269.88                3398.15                3476.92
 Force Cnst:      6.9504                 7.4261                 8.3583
 Red. Mass:       1.1033                 1.0915                 1.1735
 IR Intens:        2.303                 53.179                 13.656

 STANDARD THERMODYNAMIC QUANTITIES AT   298.15 K  AND     1.00 ATM

   This Molecule has  1 Imaginary Frequencies
   Zero point vibrational energy:       60.443 kcal/mol

   Atom    1 Element C  Has Mass   12.00000
   Atom    2 Element C  Has Mass   12.00000
   Atom    3 Element C  Has Mass   12.00000
   Atom    4 Element C  Has Mass   12.00000
   Atom    5 Element C  Has Mass   12.00000
   Atom    6 Element N  Has Mass   14.00307
   Atom    7 Element H  Has Mass    1.00783
   Atom    8 Element H  Has Mass    1.00783
   Atom    9 Element H  Has Mass    1.00783
   Atom   10 Element H  Has Mass    1.00783
   Atom   11 Element H  Has Mass    1.00783
   Atom   12 Element C  Has Mass   12.00000
   Atom   13 Element H  Has Mass    1.00783
   Molecular Mass:    92.050050 amu
   Principal axes and moments of inertia in amu*Bohr^2:
                             1           2           3
    Eigenvalues --      291.76041   895.44293  1058.04686
          X               0.73172     0.55741    -0.39227
          Y               0.34837     0.18882     0.91814
          Z              -0.58585     0.80848     0.05602
   Rotational Symmetry Number is   1
   The Molecule is an Asymmetric Top
   Translational Enthalpy:        0.889 kcal/mol
   Rotational Enthalpy:           0.889 kcal/mol
   Vibrational Enthalpy:         63.008 kcal/mol
   gas constant (RT):             0.592 kcal/mol
   Translational Entropy:        39.471  cal/mol.K
   Rotational Entropy:           27.116  cal/mol.K
   Vibrational Entropy:          16.042  cal/mol.K

   Total Enthalpy:               65.378 kcal/mol
   Total Entropy:                82.629  cal/mol.K

 Total job time:  608.65s(wall), 528.89s(cpu)
        *  Thank you very much for using Q-Chem.  Have a nice day.  *
