 Q-Chem 5.0, Q-Chem, Inc., Pleasanton, CA (2017)
 Q-Chem 5.0.2 for Intel X86 EM64T Linux

User input:
--------------------------------------------------------------
$molecule
0 2
C        1.2076267962    0.8120801738   -1.6816355089
C       -1.2199747155   -0.4923174217   -0.5538801930
C       -1.4264404055   -1.0948071516    0.7093672428
C       -0.6232100535   -0.3773837501    1.6460982020
C        0.0190535092    0.5984753126    0.9199072976
N       -0.4145213501    0.5694230743   -0.4260649567
H        0.6347741315    1.1700098895   -2.5107483223
H       -1.6965260714   -0.7339998728   -1.4956328242
H       -2.1427726353   -1.8770138428    0.9309664136
H       -0.5383328335   -0.5644637078    2.7079337036
H        0.7469333948    1.3343116258    1.2312479331
C        2.2683823995    0.5003980097   -1.1306603500
H        3.0294496906    0.1733820337   -0.4573350636
$end

$rem
method                b3lyp
basis                 6-31+g(d,p)
unrestricted          true
symmetry              off
sym_ignore            true
incdft                false
incfock               0
scf_convergence       8
thresh                14
jobtype               freq
scf_guess             read
scf_algorithm         diis
max_scf_cycles        100
$end

--------------------------------------------------------------

             Standard Nuclear Orientation (Angstroms)
    I     Atom           X                Y                Z
 ----------------------------------------------------------------
    1      C       1.2076267962     0.8120801738    -1.6816355089
    2      C      -1.2199747155    -0.4923174217    -0.5538801930
    3      C      -1.4264404055    -1.0948071516     0.7093672428
    4      C      -0.6232100535    -0.3773837501     1.6460982020
    5      C       0.0190535092     0.5984753126     0.9199072976
    6      N      -0.4145213501     0.5694230743    -0.4260649567
    7      H       0.6347741315     1.1700098895    -2.5107483223
    8      H      -1.6965260714    -0.7339998728    -1.4956328242
    9      H      -2.1427726353    -1.8770138428     0.9309664136
   10      H      -0.5383328335    -0.5644637078     2.7079337036
   11      H       0.7469333948     1.3343116258     1.2312479331
   12      C       2.2683823995     0.5003980097    -1.1306603500
   13      H       3.0294496906     0.1733820337    -0.4573350636
 ----------------------------------------------------------------

    2    -286.8359952759      9.98E-10 Convergence criterion met
 Total energy in the final basis set = -286.83599528

                    Orbital Energies (a.u.)
 --------------------------------------------------------------

 Alpha MOs
 -- Occupied --
-14.364 -10.231 -10.222 -10.215 -10.213 -10.209 -10.187  -0.962
 -0.781  -0.758  -0.722  -0.585  -0.570  -0.555  -0.522  -0.496
 -0.421  -0.417  -0.402  -0.391  -0.346  -0.304  -0.269  -0.239
 -0.225

 Beta MOs
 -- Occupied --
-14.357 -10.232 -10.218 -10.214 -10.210 -10.204 -10.188  -0.951
 -0.771  -0.749  -0.713  -0.579  -0.564  -0.551  -0.516  -0.493
 -0.414  -0.402  -0.396  -0.387  -0.330  -0.300  -0.253  -0.220

          Ground-State Mulliken Net Atomic Charges

     Atom                 Charge (a.u.)    Spin (a.u.)
  --------------------------------------------------------
      1 C                    -0.148766      -0.099954
      2 C                    -0.074800      -0.091799
      3 C                    -0.110264       0.423296
      4 C                    -0.018539      -0.139364
      5 C                    -0.305905       0.260365
      6 N                    -0.132286       0.277199
      7 H                     0.173503       0.009550
      8 H                     0.125405       0.002170
      9 H                     0.132614      -0.016703
     10 H                     0.128228       0.004082
     11 H                     0.135669      -0.011771
     12 C                    -0.082277       0.397451
     13 H                     0.177420      -0.014521
  --------------------------------------------------------
  Sum of atomic charges =    -0.000000

                    Cartesian Multipole Moments
 -----------------------------------------------------------------
    Charge (ESU x 10^10)
                -0.0000
    Dipole Moment (Debye)
         X       0.3463      Y      -0.6301      Z       0.1614
       Tot       0.7369
    Quadrupole Moments (Debye-Ang)
        XX     -39.4581     XY       2.6965     YY     -43.0436
        XZ       2.9846     YZ      -0.7925     ZZ     -38.2763

 Frequency:      -514.75                  85.33                  96.95
 Force Cnst:      1.3807                 0.0153                 0.0157
 Red. Mass:       8.8443                 3.5640                 2.8404
 IR Intens:      288.168                  1.366                  0.659
 Frequency:       161.64                 306.16                 491.06
 Force Cnst:      0.0526                 0.2006                 0.1945
 Red. Mass:       3.4151                 3.6326                 1.3692
 IR Intens:        1.565                  2.515                147.405
 Frequency:       549.84                 611.97                 639.54
 Force Cnst:      0.4366                 0.7253                 0.4156
 Red. Mass:       2.4509                 3.2872                 1.7247
 IR Intens:        3.277                 11.168                  1.770
 Frequency:       707.27                 749.50                 773.73
 Force Cnst:      0.4854                 0.4304                 0.4004
 Red. Mass:       1.6468                 1.3003                 1.1353
 IR Intens:       54.424                 26.062                 73.757
 Frequency:       802.18                 842.32                 857.54
 Force Cnst:      1.2404                 0.5702                 0.6274
 Red. Mass:       3.2715                 1.3639                 1.4481
 IR Intens:      279.496                  3.129                129.889
 Frequency:       875.21                 883.53                 992.63
 Force Cnst:      0.7111                 1.1221                 0.8886
 Red. Mass:       1.5756                 2.4398                 1.5306
 IR Intens:        8.045                 17.368                 38.692
 Frequency:      1014.04                1078.55                1132.29
 Force Cnst:      1.0409                 0.9537                 2.6082
 Red. Mass:       1.7180                 1.3914                 3.4528
 IR Intens:       21.303                 20.392                 73.958
 Frequency:      1227.48                1300.00                1350.25
 Force Cnst:      1.8182                 1.4986                 3.2238
 Red. Mass:       2.0482                 1.5050                 3.0012
 IR Intens:      170.406                 41.194                 25.450
 Frequency:      1440.47                1511.89                1886.95
 Force Cnst:      2.9332                 4.5903                 9.1891
 Red. Mass:       2.3993                 3.4084                 4.3803
 IR Intens:      138.059                 31.332                 45.397
 Frequency:      3227.31                3243.34                3253.30
 Force Cnst:      6.6770                 6.7919                 6.8181
 Red. Mass:       1.0881                 1.0959                 1.0934
 IR Intens:        3.877                  8.450                 11.238
 Frequency:      3274.66                3400.66                3478.25
 Force Cnst:      6.9685                 7.4353                 8.3552
 Red. Mass:       1.1030                 1.0912                 1.1722
 IR Intens:        2.186                 55.485                 13.966

 STANDARD THERMODYNAMIC QUANTITIES AT   298.15 K  AND     1.00 ATM

   This Molecule has  1 Imaginary Frequencies
   Zero point vibrational energy:       60.393 kcal/mol

   Atom    1 Element C  Has Mass   12.00000
   Atom    2 Element C  Has Mass   12.00000
   Atom    3 Element C  Has Mass   12.00000
   Atom    4 Element C  Has Mass   12.00000
   Atom    5 Element C  Has Mass   12.00000
   Atom    6 Element N  Has Mass   14.00307
   Atom    7 Element H  Has Mass    1.00783
   Atom    8 Element H  Has Mass    1.00783
   Atom    9 Element H  Has Mass    1.00783
   Atom   10 Element H  Has Mass    1.00783
   Atom   11 Element H  Has Mass    1.00783
   Atom   12 Element C  Has Mass   12.00000
   Atom   13 Element H  Has Mass    1.00783
   Molecular Mass:    92.050050 amu
   Principal axes and moments of inertia in amu*Bohr^2:
                             1           2           3
    Eigenvalues --      292.50718   897.22043  1058.17985
          X               0.72948     0.55763    -0.39612
          Y               0.34603     0.19869     0.91694
          Z              -0.59002     0.80596     0.04801
   Rotational Symmetry Number is   1
   The Molecule is an Asymmetric Top
   Translational Enthalpy:        0.889 kcal/mol
   Rotational Enthalpy:           0.889 kcal/mol
   Vibrational Enthalpy:         62.927 kcal/mol
   gas constant (RT):             0.592 kcal/mol
   Translational Entropy:        39.471  cal/mol.K
   Rotational Entropy:           27.120  cal/mol.K
   Vibrational Entropy:          15.286  cal/mol.K

   Total Enthalpy:               65.297 kcal/mol
   Total Entropy:                81.877  cal/mol.K

 Total job time:  603.75s(wall), 528.32s(cpu)
        *  Thank you very much for using Q-Chem.  Have a nice day.  *
