 Q-Chem 5.0, Q-Chem, Inc., Pleasanton, CA (2017)
 Q-Chem 5.0.2 for Intel X86 EM64T Linux

User input:
--------------------------------------------------------------
$molecule
0 2
C        1.2105802217    0.8091903406   -1.6761692352
C       -1.2282908505   -0.4906158459   -0.5531545176
C       -1.4279647333   -1.0939078703    0.7099386914
C       -0.6163792518   -0.3812460730    1.6407290983
C        0.0215904412    0.5915263488    0.9110363705
N       -0.4209531113    0.5676970579   -0.4323858610
H        0.6443937301    1.1575920432   -2.5142046045
H       -1.7164153186   -0.7267874143   -1.4912121223
H       -2.1477502011   -1.8721494116    0.9370089246
H       -0.5245303127   -0.5716559601    2.7019297763
H        0.7564817336    1.3247582114    1.2136155470
C        2.2716760991    0.5116414493   -1.1232987459
H        3.0220034107    0.1920514965   -0.4342697475
$end

$rem
method                b3lyp
basis                 6-31g(d)
unrestricted          true
symmetry              off
sym_ignore            true
incdft                false
incfock               0
scf_convergence       8
thresh                14
jobtype               sp
scf_guess             read
scf_algorithm         diis
max_scf_cycles        100
$end

--------------------------------------------------------------

             Standard Nuclear Orientation (Angstroms)
    I     Atom           X                Y                Z
 ----------------------------------------------------------------
    1      C       1.2105802217     0.8091903406    -1.6761692352
    2      C      -1.2282908505    -0.4906158459    -0.5531545176
    3      C      -1.4279647333    -1.0939078703     0.7099386914
    4      C      -0.6163792518    -0.3812460730     1.6407290983
    5      C       0.0215904412     0.5915263488     0.9110363705
    6      N      -0.4209531113     0.5676970579    -0.4323858610
    7      H       0.6443937301     1.1575920432    -2.5142046045
    8      H      -1.7164153186    -0.7267874143    -1.4912121223
    9      H      -2.1477502011    -1.8721494116     0.9370089246
   10      H      -0.5245303127    -0.5716559601     2.7019297763
   11      H       0.7564817336     1.3247582114     1.2136155470
   12      C       2.2716760991     0.5116414493    -1.1232987459
   13      H       3.0220034107     0.1920514965    -0.4342697475
 ----------------------------------------------------------------

    3    -286.8105940663      3.23E-09 Convergence criterion met
 Total energy in the final basis set = -286.81059407

                    Orbital Energies (a.u.)
 --------------------------------------------------------------

 Alpha MOs
 -- Occupied --
-14.348 -10.218 -10.210 -10.201 -10.201 -10.197 -10.174  -0.949
 -0.768  -0.746  -0.710  -0.575  -0.559  -0.545  -0.512  -0.486
 -0.409  -0.406  -0.392  -0.380  -0.333  -0.291  -0.257  -0.226
 -0.212

 Beta MOs
 -- Occupied --
-14.342 -10.219 -10.206 -10.202 -10.195 -10.192 -10.175  -0.938
 -0.758  -0.737  -0.701  -0.570  -0.554  -0.541  -0.506  -0.483
 -0.403  -0.392  -0.385  -0.376  -0.318  -0.287  -0.241  -0.207

          Ground-State Mulliken Net Atomic Charges

     Atom                 Charge (a.u.)    Spin (a.u.)
  --------------------------------------------------------
      1 C                    -0.122724      -0.106984
      2 C                     0.029129      -0.083115
      3 C                    -0.146345       0.406716
      4 C                    -0.166323      -0.124825
      5 C                     0.035536       0.259323
      6 N                    -0.396700       0.286770
      7 H                     0.189738       0.009137
      8 H                     0.133443       0.002199
      9 H                     0.138442      -0.017473
     10 H                     0.130431       0.004223
     11 H                     0.142658      -0.011935
     12 C                    -0.158572       0.392279
     13 H                     0.191287      -0.016316
  --------------------------------------------------------
  Sum of atomic charges =     0.000000

                    Cartesian Multipole Moments
 -----------------------------------------------------------------
    Charge (ESU x 10^10)
                 0.0000
    Dipole Moment (Debye)
         X       0.4083      Y      -0.5670      Z       0.1400
       Tot       0.7126
    Quadrupole Moments (Debye-Ang)
        XX     -37.5820     XY       2.4795     YY     -41.2837
        XZ       2.5203     YZ      -0.7533     ZZ     -36.7952

 Total job time:  11.98s(wall), 9.60s(cpu)
        *  Thank you very much for using Q-Chem.  Have a nice day.  *
