 Q-Chem 5.0, Q-Chem, Inc., Pleasanton, CA (2017)
 Q-Chem 5.0.2 for Intel X86 EM64T Linux

User input:
--------------------------------------------------------------
$molecule
0 2
C        1.2554279326    0.3061706373    0.0811228461
C        0.5874597346   -1.1359940821   -0.0720803853
C       -0.7822743869   -1.0224574752   -0.5558702645
C       -1.0354949141    0.2327157912    0.2762937141
C       -0.5232356969    1.3798637558   -0.5862394850
N        0.7519173857    1.3845994248   -0.7325396323
H        2.3208465882    0.2906626744    0.2882617553
H        1.2455168467   -1.9990553820   -0.0951544329
H       -1.2773291767   -1.3914709292   -1.4513235651
H       -2.0009587836    0.3583177072    0.7704877175
H       -1.1665463228    2.0553904906   -1.1479624511
C        0.2569184265   -0.1646565689    1.0764132803
H        0.3677523668   -0.2940860439    2.1485909029
$end

$rem
method                b3lyp
basis                 6-31g(d)
unrestricted          true
symmetry              off
sym_ignore            true
incdft                false
incfock               0
scf_convergence       8
thresh                14
jobtype               opt
scf_guess             read
scf_algorithm         diis
max_scf_cycles        100
geom_opt_tol_gradient 600
geom_opt_tol_displacement 2400
geom_opt_tol_energy   200
geom_opt_max_cycles   100
$end

--------------------------------------------------------------

    2    -286.8383090703      3.23E-09 Convergence criterion met
 Total energy in the final basis set = -286.83830907
   10    -286.8383125648      5.40E-09 Convergence criterion met
 Total energy in the final basis set = -286.83831256

             Standard Nuclear Orientation (Angstroms)
    I     Atom           X                Y                Z
 ----------------------------------------------------------------
    1      C       1.2552131035     0.3053794721     0.0799495648
    2      C       0.5872370076    -1.1362311195    -0.0725120610
    3      C      -0.7822274510    -1.0229933340    -0.5559080014
    4      C      -1.0365378988     0.2320551520     0.2760623020
    5      C      -0.5233877047     1.3791934353    -0.5861791424
    6      N       0.7515018540     1.3839489428    -0.7327848048
    7      H       2.3199432348     0.2901781709     0.2889270854
    8      H       1.2445756403    -1.9998702520    -0.0933051915
    9      H      -1.2751067933    -1.3923153489    -1.4521296157
   10      H      -2.0033110985     0.3584591898     0.7685014442
   11      H      -1.1662433824     2.0580740697    -1.1443004395
   12      C       0.2568392737    -0.1640082497     1.0757046981
   13      H       0.3715042149    -0.2918701285     2.1479741616
 ----------------------------------------------------------------

    9    -286.8383134351      8.86E-09 Convergence criterion met
 Total energy in the final basis set = -286.83831344
 Final energy is   -286.838313435138
 **  OPTIMIZATION CONVERGED  **

                    Orbital Energies (a.u.)
 --------------------------------------------------------------

 Alpha MOs
 -- Occupied --
-14.320 -10.224 -10.220 -10.210 -10.209 -10.208 -10.206  -0.968
 -0.856  -0.749  -0.664  -0.606  -0.571  -0.535  -0.516  -0.467
 -0.439  -0.405  -0.400  -0.356  -0.336  -0.298  -0.274  -0.256
 -0.182

 Beta MOs
 -- Occupied --
-14.319 -10.222 -10.219 -10.211 -10.209 -10.207 -10.193  -0.964
 -0.850  -0.741  -0.652  -0.601  -0.567  -0.528  -0.511  -0.461
 -0.434  -0.403  -0.394  -0.348  -0.332  -0.291  -0.262  -0.251

          Ground-State Mulliken Net Atomic Charges

     Atom                 Charge (a.u.)    Spin (a.u.)
  --------------------------------------------------------
      1 C                    -0.019032       0.096802
      2 C                    -0.163143      -0.095853
      3 C                    -0.066712       0.888242
      4 C                    -0.257917      -0.065651
      5 C                     0.088569       0.046943
      6 N                    -0.342179       0.039365
      7 H                     0.151421       0.002852
      8 H                     0.147212       0.005290
      9 H                     0.136236      -0.019222
     10 H                     0.142824       0.022703
     11 H                     0.143037       0.001378
     12 C                    -0.108402       0.077949
     13 H                     0.148088      -0.000798
  --------------------------------------------------------
  Sum of atomic charges =     0.000000

                    Cartesian Multipole Moments
 -----------------------------------------------------------------
    Charge (ESU x 10^10)
                 0.0000
    Dipole Moment (Debye)
         X      -1.0324      Y      -1.2954      Z       1.2055
       Tot       2.0487
    Quadrupole Moments (Debye-Ang)
        XX     -38.0926     XY      -4.3104     YY     -42.8497
        XZ       2.8753     YZ       1.6742     ZZ     -40.3795

 Total job time:  78.21s(wall), 83.83s(cpu)
        *  Thank you very much for using Q-Chem.  Have a nice day.  *
