 Q-Chem 5.0, Q-Chem, Inc., Pleasanton, CA (2017)
 Q-Chem 5.0.2 for Intel X86 EM64T Linux

User input:
--------------------------------------------------------------
$molecule
0 2
C        1.5477255952    0.2440207351   -0.2492566558
C        0.5831869504   -0.9256665191   -0.0963448637
C       -0.7104209497   -0.3606046263   -0.7864160072
C       -1.1188234174    0.1997346509    0.5899274195
C       -0.4427073897    1.0830013274   -0.5527709326
N        0.9655620747    1.3692773527   -0.4535485947
H        2.6184038939    0.1766845043   -0.0637774257
H        0.9616089111   -1.9272756957   -0.3097850380
H       -1.3210858250   -0.8234516527   -1.5561275743
H       -2.0903897486    0.5088980840    0.9634525993
H       -1.0837427485    1.8556698754   -0.9643347462
C       -0.1326904567   -0.6631843765    1.2268954768
H        0.2233731105   -0.7371036596    2.2520863422
$end

$rem
method                b3lyp
basis                 6-31g(d)
unrestricted          true
symmetry              off
sym_ignore            true
incdft                false
incfock               0
scf_convergence       8
thresh                14
jobtype               opt
scf_guess             read
scf_algorithm         diis
max_scf_cycles        100
geom_opt_tol_gradient 600
geom_opt_tol_displacement 2400
geom_opt_tol_energy   200
geom_opt_max_cycles   100
$end

--------------------------------------------------------------

    2    -286.8383083155      2.11E-09 Convergence criterion met
 Total energy in the final basis set = -286.83830832
   11    -286.8383134969      7.29E-09 Convergence criterion met
 Total energy in the final basis set = -286.83831350

             Standard Nuclear Orientation (Angstroms)
    I     Atom           X                Y                Z
 ----------------------------------------------------------------
    1      C       1.5487326410     0.2441990170    -0.2495517794
    2      C       0.5832731777    -0.9255271612    -0.0946068704
    3      C      -0.7093967658    -0.3594731951    -0.7855143671
    4      C      -1.1195795612     0.1991293942     0.5904492475
    5      C      -0.4421901697     1.0836754497    -0.5514872309
    6      N       0.9672368122     1.3697727074    -0.4533701411
    7      H       2.6211220805     0.1779188638    -0.0724497080
    8      H       0.9603985030    -1.9281227882    -0.3079884953
    9      H      -1.3190177937    -0.8224218537    -1.5555835376
   10      H      -2.0925391739     0.5057328683     0.9616132852
   11      H      -1.0832206594     1.8561523102    -0.9639813259
   12      C      -0.1341539065    -0.6632634823     1.2283696944
   13      H       0.2193348160    -0.7377721302     2.2541012281
 ----------------------------------------------------------------

    9    -286.8383141406      9.57E-09 Convergence criterion met
 Total energy in the final basis set = -286.83831414
 Final energy is   -286.838314140564
 **  OPTIMIZATION CONVERGED  **

                    Orbital Energies (a.u.)
 --------------------------------------------------------------

 Alpha MOs
 -- Occupied --
-14.320 -10.224 -10.220 -10.210 -10.209 -10.208 -10.206  -0.968
 -0.856  -0.749  -0.664  -0.606  -0.571  -0.535  -0.517  -0.466
 -0.439  -0.405  -0.400  -0.356  -0.336  -0.298  -0.274  -0.256
 -0.182

 Beta MOs
 -- Occupied --
-14.319 -10.222 -10.219 -10.211 -10.209 -10.207 -10.193  -0.964
 -0.850  -0.741  -0.652  -0.601  -0.567  -0.528  -0.511  -0.461
 -0.434  -0.402  -0.394  -0.348  -0.332  -0.291  -0.262  -0.251

          Ground-State Mulliken Net Atomic Charges

     Atom                 Charge (a.u.)    Spin (a.u.)
  --------------------------------------------------------
      1 C                     0.088693       0.046591
      2 C                    -0.258587      -0.065685
      3 C                    -0.108025       0.078077
      4 C                    -0.163274      -0.095735
      5 C                    -0.019182       0.096410
      6 N                    -0.342090       0.039520
      7 H                     0.143025       0.001396
      8 H                     0.142886       0.022630
      9 H                     0.148125      -0.000811
     10 H                     0.147222       0.005306
     11 H                     0.151392       0.002880
     12 C                    -0.066441       0.888752
     13 H                     0.136253      -0.019331
  --------------------------------------------------------
  Sum of atomic charges =     0.000000

                    Cartesian Multipole Moments
 -----------------------------------------------------------------
    Charge (ESU x 10^10)
                 0.0000
    Dipole Moment (Debye)
         X      -0.9588      Y      -1.8083      Z       0.1089
       Tot       2.0497
    Quadrupole Moments (Debye-Ang)
        XX     -37.7198     XY      -4.6407     YY     -43.8151
        XZ       1.7558     YZ       1.0427     ZZ     -39.7846

 Total job time:  90.29s(wall), 85.16s(cpu)
        *  Thank you very much for using Q-Chem.  Have a nice day.  *
