 Q-Chem 5.0, Q-Chem, Inc., Pleasanton, CA (2017)
 Q-Chem 5.0.2 for Intel X86 EM64T Linux

User input:
--------------------------------------------------------------
$molecule
0 2
C        1.2023813128    0.2879530947    0.3826809800
C        0.6317420420   -1.1045369603   -0.1508848034
C       -0.6176558106   -0.9070940666   -0.8726985933
C       -1.0788654083    0.1774265367    0.0986296654
C       -0.4490736059    1.4618832839   -0.4271018612
N        0.8286106003    1.4942803355   -0.3120741618
H        2.2051280179    0.2368354409    0.7945884707
H        1.3122759429   -1.9493048569   -0.1906914978
H       -0.9097517602   -1.1110255127   -1.9001690825
H       -2.1279032222    0.2117534019    0.4007941815
H       -0.9939788507    2.2280979763   -0.9763747156
C        0.0451763133   -0.3543856156    1.0595434799
H       -0.0480855712   -0.6718830578    2.0937579381
$end

$rem
method                b3lyp
basis                 6-31g(d)
unrestricted          true
symmetry              off
sym_ignore            true
incdft                false
incfock               0
scf_convergence       8
thresh                14
jobtype               opt
scf_guess             read
scf_algorithm         diis
max_scf_cycles        100
geom_opt_tol_gradient 600
geom_opt_tol_displacement 2400
geom_opt_tol_energy   200
geom_opt_max_cycles   100
$end

--------------------------------------------------------------

    2    -286.8383302656      2.92E-09 Convergence criterion met
 Total energy in the final basis set = -286.83833027

             Standard Nuclear Orientation (Angstroms)
    I     Atom           X                Y                Z
 ----------------------------------------------------------------
    1      C       1.2022605618     0.2877899281     0.3826700576
    2      C       0.6319647510    -1.1042702749    -0.1508537623
    3      C      -0.6179695351    -0.9074243792    -0.8725833402
    4      C      -1.0787889459     0.1773797170     0.0983834660
    5      C      -0.4489400957     1.4617300227    -0.4274884541
    6      N       0.8288829556     1.4936158446    -0.3131648232
    7      H       2.2048178055     0.2370312707     0.7950894988
    8      H       1.3125116719    -1.9490128344    -0.1905935904
    9      H      -0.9097524591    -1.1110570836    -1.9002175679
   10      H      -2.1277320399     0.2117890529     0.4008126050
   11      H      -0.9941420319     2.2287398046    -0.9753158650
   12      C       0.0450953309    -0.3544508439     1.0595093076
   13      H      -0.0482079689    -0.6718602246     2.0937524680
 ----------------------------------------------------------------

    9    -286.8383308747      7.02E-09 Convergence criterion met
 Total energy in the final basis set = -286.83833087
 Final energy is   -286.838330874675
 **  OPTIMIZATION CONVERGED  **

                    Orbital Energies (a.u.)
 --------------------------------------------------------------

 Alpha MOs
 -- Occupied --
-14.320 -10.224 -10.220 -10.210 -10.209 -10.208 -10.206  -0.968
 -0.856  -0.749  -0.664  -0.606  -0.571  -0.535  -0.516  -0.467
 -0.439  -0.405  -0.400  -0.356  -0.336  -0.298  -0.273  -0.256
 -0.182

 Beta MOs
 -- Occupied --
-14.319 -10.222 -10.219 -10.211 -10.209 -10.207 -10.193  -0.964
 -0.850  -0.741  -0.652  -0.601  -0.567  -0.528  -0.511  -0.461
 -0.434  -0.403  -0.394  -0.348  -0.332  -0.292  -0.262  -0.251

          Ground-State Mulliken Net Atomic Charges

     Atom                 Charge (a.u.)    Spin (a.u.)
  --------------------------------------------------------
      1 C                    -0.019092       0.096859
      2 C                    -0.163415      -0.095847
      3 C                    -0.066263       0.888522
      4 C                    -0.258037      -0.065708
      5 C                     0.088653       0.047042
      6 N                    -0.342225       0.039234
      7 H                     0.151439       0.002843
      8 H                     0.147212       0.005290
      9 H                     0.136243      -0.019296
     10 H                     0.142804       0.022691
     11 H                     0.143041       0.001382
     12 C                    -0.108438       0.077771
     13 H                     0.148078      -0.000783
  --------------------------------------------------------
  Sum of atomic charges =     0.000000

                    Cartesian Multipole Moments
 -----------------------------------------------------------------
    Charge (ESU x 10^10)
                -0.0000
    Dipole Moment (Debye)
         X      -1.2004      Y      -1.4922      Z       0.7275
       Tot       2.0486
    Quadrupole Moments (Debye-Ang)
        XX     -38.9589     XY      -4.8808     YY     -43.3703
        XZ       2.2419     YZ       0.1595     ZZ     -38.9891

 Total job time:  19.13s(wall), 47.26s(cpu)
        *  Thank you very much for using Q-Chem.  Have a nice day.  *
