 Q-Chem 5.0, Q-Chem, Inc., Pleasanton, CA (2017)
 Q-Chem 5.0.2 for Intel X86 EM64T Linux

User input:
--------------------------------------------------------------
$molecule
0 2
C        1.6972674499    0.2878043459   -0.2177946769
C        1.0901877441   -0.9150443011   -0.1130997488
C       -0.3619637773   -1.0474732349    0.0889831806
C       -1.1404209314    0.3810042155   -0.0222865165
C       -0.2577572752    1.5000476524   -0.4006826261
N        1.0305620919    1.4987760097   -0.4081843795
H        2.7791612696    0.3569904953   -0.2962301170
H        1.6743188469   -1.8289541903   -0.1884936329
H       -0.8372409141   -1.9446421130   -0.3118803428
H       -2.1404458750    0.4184069429   -0.4587273145
H       -0.7545360329    2.4046352209   -0.7599226703
C       -0.9922145815   -0.3754667208    1.2230969943
H       -1.7869180147   -0.7360843224    1.8652218504
$end

$rem
method                b3lyp
basis                 6-31g(d)
unrestricted          true
symmetry              off
sym_ignore            true
incdft                false
incfock               0
scf_convergence       8
thresh                14
jobtype               opt
scf_guess             read
scf_algorithm         diis
max_scf_cycles        100
geom_opt_tol_gradient 600
geom_opt_tol_displacement 2400
geom_opt_tol_energy   200
geom_opt_max_cycles   100
$end

--------------------------------------------------------------

             Standard Nuclear Orientation (Angstroms)
    I     Atom           X                Y                Z
 ----------------------------------------------------------------
    1      C       1.6972674499     0.2878043459    -0.2177946769
    2      C       1.0901877441    -0.9150443011    -0.1130997488
    3      C      -0.3619637773    -1.0474732349     0.0889831806
    4      C      -1.1404209314     0.3810042155    -0.0222865165
    5      C      -0.2577572752     1.5000476524    -0.4006826261
    6      N       1.0305620919     1.4987760097    -0.4081843795
    7      H       2.7791612696     0.3569904953    -0.2962301170
    8      H       1.6743188469    -1.8289541903    -0.1884936329
    9      H      -0.8372409141    -1.9446421130    -0.3118803428
   10      H      -2.1404458750     0.4184069429    -0.4587273145
   11      H      -0.7545360329     2.4046352209    -0.7599226703
   12      C      -0.9922145815    -0.3754667208     1.2230969943
   13      H      -1.7869180147    -0.7360843224     1.8652218504
 ----------------------------------------------------------------

    2    -286.8549868008      2.49E-09 Convergence criterion met
 Total energy in the final basis set = -286.85498680
 Final energy is   -286.854986800800
 **  OPTIMIZATION CONVERGED  **

                    Orbital Energies (a.u.)
 --------------------------------------------------------------

 Alpha MOs
 -- Occupied --
-14.323 -10.230 -10.224 -10.221 -10.219 -10.206 -10.195  -0.934
 -0.868  -0.765  -0.667  -0.641  -0.570  -0.532  -0.491  -0.482
 -0.451  -0.425  -0.377  -0.373  -0.359  -0.300  -0.255  -0.229
 -0.219

 Beta MOs
 -- Occupied --
-14.323 -10.229 -10.224 -10.221 -10.207 -10.205 -10.194  -0.932
 -0.858  -0.763  -0.659  -0.639  -0.556  -0.527  -0.488  -0.473
 -0.447  -0.422  -0.375  -0.371  -0.351  -0.290  -0.250  -0.225

          Ground-State Mulliken Net Atomic Charges

     Atom                 Charge (a.u.)    Spin (a.u.)
  --------------------------------------------------------
      1 C                    -0.009202      -0.014562
      2 C                    -0.084025       0.040910
      3 C                    -0.175916      -0.016468
      4 C                    -0.194469      -0.016787
      5 C                     0.088702       0.019413
      6 N                    -0.391617       0.002403
      7 H                     0.136792       0.000767
      8 H                     0.139629       0.003642
      9 H                     0.155181       0.017095
     10 H                     0.155381       0.022559
     11 H                     0.142837       0.005878
     12 C                    -0.121037       0.958282
     13 H                     0.157744      -0.023130
  --------------------------------------------------------
  Sum of atomic charges =     0.000000

                    Cartesian Multipole Moments
 -----------------------------------------------------------------
    Charge (ESU x 10^10)
                 0.0000
    Dipole Moment (Debye)
         X      -2.0272      Y      -1.9805      Z      -0.0323
       Tot       2.8343
    Quadrupole Moments (Debye-Ang)
        XX     -37.2632     XY      -3.1735     YY     -41.2214
        XZ       0.1409     YZ       0.1200     ZZ     -42.4173

 Total job time:  15.24s(wall), 14.94s(cpu)
        *  Thank you very much for using Q-Chem.  Have a nice day.  *
