 Q-Chem 5.0, Q-Chem, Inc., Pleasanton, CA (2017)
 Q-Chem 5.0.2 for Intel X86 EM64T Linux

User input:
--------------------------------------------------------------
$molecule
0 2
C        1.3742278557    0.4014843027   -0.0610793554
C        0.7640185265   -0.9508681791   -0.2822476319
C       -0.6703146929   -0.9559696448   -0.6888736443
C       -1.0647642511    0.3319883106    0.1074993517
C       -0.4732064868    1.5468368979   -0.4922206483
N        0.8333362027    1.5692151877   -0.5262705666
H        2.3688133974    0.4173022771    0.3731848058
H        1.3793023572   -1.8434813208   -0.2591524987
H       -1.2241890610   -1.8796960569   -0.5232866599
H       -2.0833540749    0.3841562167    0.4859461899
H       -1.0618651204    2.3549328816   -0.9153437227
C       -0.0011358156   -0.4320078700    0.9049676822
H       -0.1626442822   -0.9549218919    1.8454010655
$end

$rem
method                b3lyp
basis                 6-31+g(d,p)
unrestricted          true
symmetry              off
sym_ignore            true
incdft                false
incfock               0
scf_convergence       8
thresh                14
jobtype               rpath
scf_guess             core
scf_guess_mix         5
scf_algorithm         diis
max_scf_cycles        100
rpath_direction       1
rpath_tol_displacement 1000
rpath_max_cycles      50
geom_opt_max_cycles   300
geom_opt_hessian      read
$end

--------------------------------------------------------------

   22    -286.8141667226      6.95E-09 Convergence criterion met
 Total energy in the final basis set = -286.81416672
   23    -286.8175170377      5.44E-09 Convergence criterion met
 Total energy in the final basis set = -286.81751704
   23    -286.8175024471      5.65E-09 Convergence criterion met
 Total energy in the final basis set = -286.81750245
   23    -286.8175289323      5.51E-09 Convergence criterion met
 Total energy in the final basis set = -286.81752893
   22    -286.8253780231      7.94E-09 Convergence criterion met
 Total energy in the final basis set = -286.82537802
   22    -286.8253704343      6.32E-09 Convergence criterion met
 Total energy in the final basis set = -286.82537043
   22    -286.8254018766      6.96E-09 Convergence criterion met
 Total energy in the final basis set = -286.82540188
   21    -286.8343612944      9.91E-09 Convergence criterion met
 Total energy in the final basis set = -286.85654929
   21    -286.8568732206      3.77E-09 Convergence criterion met
 Total energy in the final basis set = -286.85687322
   21    -286.8568288817      3.72E-09 Convergence criterion met
 Total energy in the final basis set = -286.85682888
   21    -286.8568799453      3.83E-09 Convergence criterion met
 Total energy in the final basis set = -286.85687995
   22    -286.8527776623      1.96E-09 Convergence criterion met
 Total energy in the final basis set = -286.85277766
   21    -286.8568823558      3.91E-09 Convergence criterion met
 Total energy in the final basis set = -286.85688236
   21    -286.8568820401      3.75E-09 Convergence criterion met
 Total energy in the final basis set = -286.85688204
   21    -286.8568831937      3.84E-09 Convergence criterion met
 Total energy in the final basis set = -286.85688319

                    Orbital Energies (a.u.)
 --------------------------------------------------------------

 Alpha MOs
 -- Occupied --
-14.334 -10.233 -10.231 -10.223 -10.221 -10.220 -10.211  -0.980
 -0.867  -0.760  -0.674  -0.615  -0.583  -0.549  -0.518  -0.465
 -0.450  -0.420  -0.410  -0.369  -0.344  -0.317  -0.282  -0.271
 -0.180

 Beta MOs
 -- Occupied --
-14.334 -10.233 -10.231 -10.221 -10.220 -10.220 -10.199  -0.976
 -0.861  -0.753  -0.661  -0.611  -0.579  -0.544  -0.511  -0.458
 -0.446  -0.415  -0.406  -0.361  -0.340  -0.304  -0.275  -0.266

          Ground-State Mulliken Net Atomic Charges

     Atom                 Charge (a.u.)    Spin (a.u.)
  --------------------------------------------------------
      1 C                    -0.252787       0.014709
      2 C                    -0.105850      -0.102179
      3 C                    -0.112686       1.000970
      4 C                    -0.108314      -0.087408
      5 C                    -0.012203      -0.001299
      6 N                    -0.177877       0.027158
      7 H                     0.144853       0.003275
      8 H                     0.140056       0.000404
      9 H                     0.136910      -0.040055
     10 H                     0.131469       0.008443
     11 H                     0.131910       0.001596
     12 C                    -0.050670       0.166692
     13 H                     0.135189       0.007693
  --------------------------------------------------------
  Sum of atomic charges =    -0.000000

                    Cartesian Multipole Moments
 -----------------------------------------------------------------
    Charge (ESU x 10^10)
                 0.0000
    Dipole Moment (Debye)
         X      -1.2917      Y      -1.9401      Z       1.7512
       Tot       2.9153
    Quadrupole Moments (Debye-Ang)
        XX     -38.6731     XY      -4.5017     YY     -43.4664
        XZ       2.0556     YZ       0.9141     ZZ     -43.1038

             Standard Nuclear Orientation (Angstroms)
    I     Atom           X                Y                Z
 ----------------------------------------------------------------
    1      C       1.3742278557     0.4014843027    -0.0610793554
    2      C       0.7640185265    -0.9508681791    -0.2822476319
    3      C      -0.6703146929    -0.9559696448    -0.6888736443
    4      C      -1.0647642511     0.3319883106     0.1074993517
    5      C      -0.4732064868     1.5468368979    -0.4922206483
    6      N       0.8333362027     1.5692151877    -0.5262705666
    7      H       2.3688133974     0.4173022771     0.3731848058
    8      H       1.3793023572    -1.8434813208    -0.2591524987
    9      H      -1.2241890610    -1.8796960569    -0.5232866599
   10      H      -2.0833540749     0.3841562167     0.4859461899
   11      H      -1.0618651204     2.3549328816    -0.9153437227
   12      C      -0.0011358156    -0.4320078700     0.9049676822
   13      H      -0.1626442822    -0.9549218919     1.8454010655
 ----------------------------------------------------------------

 Total job time:  10441.46s(wall), 34724.83s(cpu)
        *  Thank you very much for using Q-Chem.  Have a nice day.  *
