 Q-Chem 5.0, Q-Chem, Inc., Pleasanton, CA (2017)
 Q-Chem 5.0.2 for Intel X86 EM64T Linux

User input:
--------------------------------------------------------------
$molecule
0 2
C        1.2483716090    0.3417904151    0.1798459084
C        0.6741668978   -1.0428831529   -0.2404276722
C       -0.6673300102   -0.9026537412   -0.8239893823
C       -1.0495599049    0.2183465473    0.1545745935
C       -0.4960311444    1.4838652168   -0.4861582462
N        0.7849735175    1.5268870835   -0.5117809031
H        2.2821494015    0.3351545634    0.5080963326
H        1.3384978317   -1.8977749160   -0.3040037827
H       -1.3142607339   -1.7226840535   -1.1111572136
H       -2.0623535969    0.2483765045    0.5565025893
H       -1.1035669276    2.2279371494   -0.9963151658
C        0.1708727986   -0.2632089231    1.0143515785
H        0.1940702618   -0.5531526933    2.0604613636
$end

$rem
method                b3lyp
basis                 6-31+g(d,p)
unrestricted          true
symmetry              off
sym_ignore            true
incdft                false
incfock               0
scf_convergence       8
thresh                14
jobtype               sp
scf_guess             core
scf_guess_mix         5
scf_algorithm         diis
max_scf_cycles        100
$end

--------------------------------------------------------------

             Standard Nuclear Orientation (Angstroms)
    I     Atom           X                Y                Z
 ----------------------------------------------------------------
    1      C       1.2483716090     0.3417904151     0.1798459084
    2      C       0.6741668978    -1.0428831529    -0.2404276722
    3      C      -0.6673300102    -0.9026537412    -0.8239893823
    4      C      -1.0495599049     0.2183465473     0.1545745935
    5      C      -0.4960311444     1.4838652168    -0.4861582462
    6      N       0.7849735175     1.5268870835    -0.5117809031
    7      H       2.2821494015     0.3351545634     0.5080963326
    8      H       1.3384978317    -1.8977749160    -0.3040037827
    9      H      -1.3142607339    -1.7226840535    -1.1111572136
   10      H      -2.0623535969     0.2483765045     0.5565025893
   11      H      -1.1035669276     2.2279371494    -0.9963151658
   12      C       0.1708727986    -0.2632089231     1.0143515785
   13      H       0.1940702618    -0.5531526933     2.0604613636
 ----------------------------------------------------------------

   21    -286.8568809931      3.81E-09 Convergence criterion met
 Total energy in the final basis set = -286.85688099

                    Orbital Energies (a.u.)
 --------------------------------------------------------------

 Alpha MOs
 -- Occupied --
-14.334 -10.233 -10.231 -10.223 -10.221 -10.220 -10.211  -0.980
 -0.867  -0.759  -0.673  -0.615  -0.583  -0.549  -0.518  -0.465
 -0.450  -0.420  -0.410  -0.369  -0.344  -0.317  -0.282  -0.271
 -0.180

 Beta MOs
 -- Occupied --
-14.334 -10.233 -10.231 -10.221 -10.220 -10.220 -10.199  -0.976
 -0.861  -0.753  -0.661  -0.611  -0.579  -0.544  -0.511  -0.458
 -0.446  -0.415  -0.406  -0.361  -0.340  -0.304  -0.275  -0.266

          Ground-State Mulliken Net Atomic Charges

     Atom                 Charge (a.u.)    Spin (a.u.)
  --------------------------------------------------------
      1 C                    -0.252823       0.014527
      2 C                    -0.105850      -0.102074
      3 C                    -0.112598       1.000886
      4 C                    -0.108467      -0.087405
      5 C                    -0.011886      -0.001439
      6 N                    -0.177880       0.027133
      7 H                     0.144883       0.003285
      8 H                     0.140047       0.000399
      9 H                     0.136877      -0.040006
     10 H                     0.131446       0.008429
     11 H                     0.131855       0.001607
     12 C                    -0.050835       0.166966
     13 H                     0.135231       0.007690
  --------------------------------------------------------
  Sum of atomic charges =    -0.000000

                    Cartesian Multipole Moments
 -----------------------------------------------------------------
    Charge (ESU x 10^10)
                -0.0000
    Dipole Moment (Debye)
         X      -1.3049      Y      -1.9599      Z       1.7163
       Tot       2.9137
    Quadrupole Moments (Debye-Ang)
        XX     -38.6892     XY      -4.5087     YY     -43.5323
        XZ       2.0763     YZ       0.8478     ZZ     -43.0211

 Total job time:  35.70s(wall), 109.84s(cpu)
        *  Thank you very much for using Q-Chem.  Have a nice day.  *
