 Q-Chem 5.0, Q-Chem, Inc., Pleasanton, CA (2017)
 Q-Chem 5.0.2 for Intel X86 EM64T Linux

User input:
--------------------------------------------------------------
$molecule
0 2
C        1.3742278557    0.4014843027   -0.0610793554
C        0.7640185265   -0.9508681791   -0.2822476319
C       -0.6703146929   -0.9559696448   -0.6888736443
C       -1.0647642511    0.3319883106    0.1074993517
C       -0.4732064868    1.5468368979   -0.4922206483
N        0.8333362027    1.5692151877   -0.5262705666
H        2.3688133974    0.4173022771    0.3731848058
H        1.3793023572   -1.8434813208   -0.2591524987
H       -1.2241890610   -1.8796960569   -0.5232866599
H       -2.0833540749    0.3841562167    0.4859461899
H       -1.0618651204    2.3549328816   -0.9153437227
C       -0.0011358156   -0.4320078700    0.9049676822
H       -0.1626442822   -0.9549218919    1.8454010655
$end

$rem
method                b3lyp
basis                 6-31+g(d,p)
unrestricted          true
symmetry              off
sym_ignore            true
incdft                false
incfock               0
scf_convergence       6
thresh                14
jobtype               sp
scf_guess             read
scf_algorithm         diis
max_scf_cycles        100
stability_analysis    true
max_cis_cycles        100
cis_n_roots           4
$end

--------------------------------------------------------------

             Standard Nuclear Orientation (Angstroms)
    I     Atom           X                Y                Z
 ----------------------------------------------------------------
    1      C       1.3742278557     0.4014843027    -0.0610793554
    2      C       0.7640185265    -0.9508681791    -0.2822476319
    3      C      -0.6703146929    -0.9559696448    -0.6888736443
    4      C      -1.0647642511     0.3319883106     0.1074993517
    5      C      -0.4732064868     1.5468368979    -0.4922206483
    6      N       0.8333362027     1.5692151877    -0.5262705666
    7      H       2.3688133974     0.4173022771     0.3731848058
    8      H       1.3793023572    -1.8434813208    -0.2591524987
    9      H      -1.2241890610    -1.8796960569    -0.5232866599
   10      H      -2.0833540749     0.3841562167     0.4859461899
   11      H      -1.0618651204     2.3549328816    -0.9153437227
   12      C      -0.0011358156    -0.4320078700     0.9049676822
   13      H      -0.1626442822    -0.9549218919     1.8454010655
 ----------------------------------------------------------------

    2    -286.8141667226      3.72E-09 Convergence criterion met
 Total energy in the final basis set = -286.81416672

         TDDFT/TDA Excitation Energies
 ---------------------------------------------------

 Excited state   1: excitation energy (eV) =    1.7152
 Total energy for state  1:                  -286.75113354 au
    <S**2>     :  0.7759
    Trans. Mom.: -0.1426 X  -0.6732 Y  -0.1131 Z
    Strength   :     0.0204357914
    S(  1) --> V(  1) amplitude =  0.9723 alpha
    D( 24) --> S(  1) amplitude = -0.1603 beta

 Excited state   2: excitation energy (eV) =    2.6344
 Total energy for state  2:                  -286.71735249 au
    <S**2>     :  0.7877
    Trans. Mom.: -0.1090 X  -0.2786 Y   0.2641 Z
    Strength   :     0.0102774409
    S(  1) --> V(  2) amplitude =  0.9951 alpha

 Excited state   3: excitation energy (eV) =    3.1200
 Total energy for state  3:                  -286.69950826 au
    <S**2>     :  0.8024
    Trans. Mom.: -0.2489 X   0.1581 Y   0.0503 Z
    Strength   :     0.0068390001
    S(  1) --> V(  3) amplitude =  0.7770 alpha
    S(  1) --> V(  4) amplitude = -0.5533 alpha
    S(  1) --> V(  6) amplitude = -0.1598 alpha

 Excited state   4: excitation energy (eV) =    3.3113
 Total energy for state  4:                  -286.69247807 au
    <S**2>     :  0.7876
    Trans. Mom.: -0.1312 X   0.1279 Y  -0.0203 Z
    Strength   :     0.0027570991
    S(  1) --> V(  3) amplitude =  0.5887 alpha
    S(  1) --> V(  4) amplitude =  0.8037 alpha

 ---------------------------------------------------

                    Orbital Energies (a.u.)
 --------------------------------------------------------------

 Alpha MOs
 -- Occupied --
-14.331 -10.252 -10.246 -10.232 -10.230 -10.228 -10.219  -0.979
 -0.888  -0.767  -0.655  -0.636  -0.613  -0.557  -0.506  -0.461
 -0.450  -0.433  -0.422  -0.380  -0.374  -0.321  -0.280  -0.257
 -0.136

 Beta MOs
 -- Occupied --
-14.331 -10.253 -10.243 -10.228 -10.227 -10.224 -10.215  -0.974
 -0.883  -0.760  -0.648  -0.627  -0.610  -0.553  -0.501  -0.458
 -0.444  -0.430  -0.412  -0.374  -0.366  -0.303  -0.273  -0.247

          Ground-State Mulliken Net Atomic Charges

     Atom                 Charge (a.u.)    Spin (a.u.)
  --------------------------------------------------------
      1 C                    -0.247479       0.247616
      2 C                    -0.062990       0.044482
      3 C                    -0.144367       0.606492
      4 C                    -0.261738      -0.043715
      5 C                     0.015172       0.245463
      6 N                    -0.198716      -0.006453
      7 H                     0.142865      -0.009171
      8 H                     0.150846      -0.007299
      9 H                     0.152870      -0.004931
     10 H                     0.139616      -0.002857
     11 H                     0.128428      -0.013456
     12 C                     0.036675      -0.071104
     13 H                     0.148819       0.014932
  --------------------------------------------------------
  Sum of atomic charges =     0.000000

                    Cartesian Multipole Moments
 -----------------------------------------------------------------
    Charge (ESU x 10^10)
                 0.0000
    Dipole Moment (Debye)
         X      -1.0610      Y      -2.7170      Z       1.8789
       Tot       3.4696
    Quadrupole Moments (Debye-Ang)
        XX     -39.0001     XY      -4.7360     YY     -43.6587
        XZ       0.7075     YZ      -0.5725     ZZ     -44.3343

 Total job time:  192.03s(wall), 182.10s(cpu)
        *  Thank you very much for using Q-Chem.  Have a nice day.  *
