 Q-Chem 5.0, Q-Chem, Inc., Pleasanton, CA (2017)
 Q-Chem 5.0.2 for Intel X86 EM64T Linux

User input:
--------------------------------------------------------------
$molecule
0 2
C        1.5412921303    0.4405422263   -0.3489462594
C        0.8430675380   -0.8003856837    0.0637601250
C       -0.5873749817   -1.0214460335   -0.3966521166
C       -1.1163760657    0.3124700636    0.1115571339
C       -0.4329709969    1.5399148747   -0.3621540183
N        0.8834476993    1.5789169815   -0.5670830006
H        2.6230327411    0.4505011624   -0.4599555363
H        1.4538394952   -1.6924799523    0.1881294443
H       -1.0744974989   -1.8578082869   -0.8768057403
H       -2.1888754130    0.3793423391    0.2833070765
H       -1.0065226366    2.4381921126   -0.5786348635
C       -0.3493482713   -0.6528633211    0.9983202368
H       -0.5887137401   -1.1148964824    1.9451575180
$end

$rem
method                b3lyp
basis                 6-31+g(d,p)
unrestricted          true
symmetry              off
sym_ignore            true
incdft                false
incfock               0
scf_convergence       6
thresh                14
jobtype               sp
scf_guess             read
scf_algorithm         diis
max_scf_cycles        100
stability_analysis    true
max_cis_cycles        100
cis_n_roots           4
$end

--------------------------------------------------------------

             Standard Nuclear Orientation (Angstroms)
    I     Atom           X                Y                Z
 ----------------------------------------------------------------
    1      C       1.5412921303     0.4405422263    -0.3489462594
    2      C       0.8430675380    -0.8003856837     0.0637601250
    3      C      -0.5873749817    -1.0214460335    -0.3966521166
    4      C      -1.1163760657     0.3124700636     0.1115571339
    5      C      -0.4329709969     1.5399148747    -0.3621540183
    6      N       0.8834476993     1.5789169815    -0.5670830006
    7      H       2.6230327411     0.4505011624    -0.4599555363
    8      H       1.4538394952    -1.6924799523     0.1881294443
    9      H      -1.0744974989    -1.8578082869    -0.8768057403
   10      H      -2.1888754130     0.3793423391     0.2833070765
   11      H      -1.0065226366     2.4381921126    -0.5786348635
   12      C      -0.3493482713    -0.6528633211     0.9983202368
   13      H      -0.5887137401    -1.1148964824     1.9451575180
 ----------------------------------------------------------------

    2    -286.8792738871      1.06E-09 Convergence criterion met
 Total energy in the final basis set = -286.87927389

         TDDFT/TDA Excitation Energies
 ---------------------------------------------------

 Excited state   1: excitation energy (eV) =    2.8230
 Total energy for state  1:                  -286.77553104 au
    <S**2>     :  0.7805
    Trans. Mom.: -0.0009 X  -0.0017 Y   0.0006 Z
    Strength   :     0.0000002768
    D( 24) --> S(  1) amplitude =  0.9970 beta

 Excited state   2: excitation energy (eV) =    3.5301
 Total energy for state  2:                  -286.74954428 au
    <S**2>     :  0.7688
    Trans. Mom.: -0.3932 X   0.2250 Y   0.0145 Z
    Strength   :     0.0177654192
    S(  1) --> V(  1) amplitude =  0.9209 alpha
    S(  1) --> V(  5) amplitude =  0.1677 alpha
    D( 23) --> S(  1) amplitude =  0.3005 beta

 Excited state   3: excitation energy (eV) =    4.1687
 Total energy for state  3:                  -286.72607879 au
    <S**2>     :  0.7909
    Trans. Mom.:  0.0045 X   0.0084 Y  -0.0030 Z
    Strength   :     0.0000101804
    S(  1) --> V(  2) amplitude =  0.9916 alpha

 Excited state   4: excitation energy (eV) =    4.5484
 Total energy for state  4:                  -286.71212237 au
    <S**2>     :  2.4736
    Trans. Mom.:  0.0191 X  -0.0353 Y  -0.0683 Z
    Strength   :     0.0006987598
    D( 24) --> V(  1) amplitude = -0.8430 alpha
    D( 24) --> V(  5) amplitude = -0.2259 alpha
    D( 24) --> V(  2) amplitude = -0.3595 beta
    D( 24) --> V(  5) amplitude =  0.1719 beta

 ---------------------------------------------------

                    Orbital Energies (a.u.)
 --------------------------------------------------------------

 Alpha MOs
 -- Occupied --
-14.331 -10.226 -10.226 -10.226 -10.225 -10.225 -10.225  -0.970
 -0.907  -0.760  -0.652  -0.645  -0.597  -0.553  -0.490  -0.482
 -0.473  -0.417  -0.405  -0.373  -0.348  -0.310  -0.309  -0.239
 -0.184

 Beta MOs
 -- Occupied --
-14.334 -10.226 -10.226 -10.223 -10.223 -10.218 -10.218  -0.966
 -0.905  -0.748  -0.641  -0.640  -0.592  -0.550  -0.484  -0.476
 -0.472  -0.413  -0.388  -0.370  -0.333  -0.309  -0.305  -0.239

          Ground-State Mulliken Net Atomic Charges

     Atom                 Charge (a.u.)    Spin (a.u.)
  --------------------------------------------------------
      1 C                    -0.101331       0.605279
      2 C                    -0.172286      -0.050504
      3 C                    -0.014085       0.081345
      4 C                    -0.172795      -0.050560
      5 C                    -0.101103       0.605408
      6 N                    -0.216353      -0.201344
      7 H                     0.124284      -0.032264
      8 H                     0.130365       0.000799
      9 H                     0.141415      -0.003999
     10 H                     0.130431       0.000799
     11 H                     0.124247      -0.032276
     12 C                    -0.014271       0.081313
     13 H                     0.141482      -0.003997
  --------------------------------------------------------
  Sum of atomic charges =     0.000000

                    Cartesian Multipole Moments
 -----------------------------------------------------------------
    Charge (ESU x 10^10)
                 0.0000
    Dipole Moment (Debye)
         X      -1.5164      Y      -2.7109      Z       0.9736
       Tot       3.2552
    Quadrupole Moments (Debye-Ang)
        XX     -38.4842     XY      -3.9613     YY     -43.4390
        XZ       0.5574     YZ       0.7719     ZZ     -42.9140

 Total job time:  200.48s(wall), 193.36s(cpu)
        *  Thank you very much for using Q-Chem.  Have a nice day.  *
