 Q-Chem 5.0, Q-Chem, Inc., Pleasanton, CA (2017)
 Q-Chem 5.0.2 for Intel X86 EM64T Linux

User input:
--------------------------------------------------------------
$molecule
0 2
C        1.5360253282    0.4300916143   -0.3801114367
C        0.8437544071   -0.7974397119    0.0798822764
C       -0.5862466520   -1.0274836295   -0.3820258608
C       -1.1170077234    0.3117676513    0.1015896275
C       -0.4276996931    1.5419333912   -0.3564318933
N        0.8835071537    1.5722516612   -0.5869184177
H        2.6090857182    0.4195212083   -0.5610841245
H        1.4550905977   -1.6868571385    0.2237080226
H       -1.0696760219   -1.8716988620   -0.8536588081
H       -2.1913568186    0.3771031146    0.2651805570
H       -0.9909250331    2.4596109741   -0.5150379808
C       -0.3510240979   -0.6406732085    1.0055382051
H       -0.5935271654   -1.0881270641    1.9593698327
****
C        1.2422399493    0.3283039978    0.1566710642
C        0.6188020220   -1.1154327636   -0.1210607696
C       -0.7310645796   -1.0010553686   -0.6565060105
C       -1.0528460772    0.1895122595    0.2441151890
C       -0.5327345617    1.4032272737   -0.5170596057
N        0.7468272647    1.4474523375   -0.6048320560
H        2.2969805758    0.3233545377    0.4119880653
H        1.2988002095   -1.9601987702   -0.1699889899
H       -1.1754432709   -1.3203542939   -1.5962849372
H       -2.0427702117    0.2605054066    0.7001106451
H       -1.1680351359    2.1027516675   -1.0581353313
C        0.2141857041   -0.2302907152    1.0727854620
H        0.2850581112   -0.4277755689    2.1381972745
$end

$rem
method                b3lyp
basis                 6-31g(d)
unrestricted          true
symmetry              off
sym_ignore            true
incdft                false
incfock               0
scf_convergence       8
thresh                14
jobtype               fsm
scf_guess             core
scf_guess_mix         5
scf_algorithm         diis
max_scf_cycles        100
fsm_nnode             21
fsm_ngrad             6
fsm_mode              2
fsm_opt_mode          2
$end

--------------------------------------------------------------

   18    -286.8584622287      5.89E-09 Convergence criterion met
 Total energy in the final basis set = -286.85846223
   20    -286.8383169189      7.98E-09 Convergence criterion met
 Total energy in the final basis set = -286.83831692
   19    -286.8571103351      6.18E-09 Convergence criterion met
 Total energy in the final basis set = -286.85711034
   19    -286.8567411354      5.80E-09 Convergence criterion met
 Total energy in the final basis set = -286.85674114
   20    -286.8522994957      2.49E-09 Convergence criterion met
 Total energy in the final basis set = -286.85229950
   19    -286.8567769718      8.02E-09 Convergence criterion met
 Total energy in the final basis set = -286.85677697
   20    -286.8364495966      6.12E-09 Convergence criterion met
 Total energy in the final basis set = -286.83644960
   20    -286.8369543335      8.72E-09 Convergence criterion met
 Total energy in the final basis set = -286.78237624
   24    -286.7836931653      5.95E-09 Convergence criterion met
 Total energy in the final basis set = -286.78369317
   24    -286.7823707242      8.33E-09 Convergence criterion met
 Total energy in the final basis set = -286.78237072
   24    -286.7837024543      5.92E-09 Convergence criterion met
 Total energy in the final basis set = -286.78370245
   24    -286.7823466911      8.52E-09 Convergence criterion met
 Total energy in the final basis set = -286.78234669
   24    -286.7837293786      5.80E-09 Convergence criterion met
 Total energy in the final basis set = -286.78372938
   24    -286.7823243103      8.59E-09 Convergence criterion met
 Total energy in the final basis set = -286.78232431
   24    -286.7837541459      5.73E-09 Convergence criterion met
 Total energy in the final basis set = -286.78375415

                    Orbital Energies (a.u.)
 --------------------------------------------------------------

 Alpha MOs
 -- Occupied --
-14.312 -10.235 -10.227 -10.219 -10.218 -10.214 -10.198  -0.954
 -0.867  -0.749  -0.634  -0.624  -0.604  -0.540  -0.485  -0.458
 -0.444  -0.413  -0.408  -0.376  -0.356  -0.300  -0.266  -0.218
 -0.133

 Beta MOs
 -- Occupied --
-14.313 -10.236 -10.221 -10.219 -10.218 -10.207 -10.191  -0.949
 -0.863  -0.739  -0.627  -0.613  -0.599  -0.537  -0.479  -0.453
 -0.438  -0.409  -0.396  -0.367  -0.353  -0.289  -0.258  -0.206

          Ground-State Mulliken Net Atomic Charges

     Atom                 Charge (a.u.)    Spin (a.u.)
  --------------------------------------------------------
      1 C                     0.031547       0.454096
      2 C                    -0.156681      -0.019206
      3 C                    -0.105783       0.456192
      4 C                    -0.234318      -0.040775
      5 C                     0.080524       0.434751
      6 N                    -0.368488      -0.099632
      7 H                     0.130913      -0.008617
      8 H                     0.148951       0.000050
      9 H                     0.162317      -0.025023
     10 H                     0.141420       0.003828
     11 H                     0.130926      -0.021016
     12 C                    -0.123918      -0.145704
     13 H                     0.162590       0.011055
  --------------------------------------------------------
  Sum of atomic charges =     0.000000

                    Cartesian Multipole Moments
 -----------------------------------------------------------------
    Charge (ESU x 10^10)
                 0.0000
    Dipole Moment (Debye)
         X      -1.4218      Y      -2.8089      Z       1.0792
       Tot       3.3280
    Quadrupole Moments (Debye-Ang)
        XX     -38.1913     XY      -3.6713     YY     -42.3887
        XZ       1.3156     YZ       0.8329     ZZ     -41.0259

             Standard Nuclear Orientation (Angstroms)
    I     Atom           X                Y                Z
 ----------------------------------------------------------------
    1      C       1.4457183755     0.4074814409    -0.1678735598
    2      C       0.7684004651    -0.9396038460    -0.1083388340
    3      C      -0.6406978107    -0.9760371976    -0.5666720868
    4      C      -1.0830414547     0.2911143881     0.1558790080
    5      C      -0.4874861001     1.5135109045    -0.4590688607
    6      N       0.8225658919     1.5314612313    -0.5715288215
    7      H       2.5298982767     0.4459381304    -0.0132147944
    8      H       1.3970986229    -1.8277943252    -0.0187015761
    9      H      -1.2168765575    -1.7814331386    -1.0231411244
   10      H      -2.1289372645     0.3638152003     0.4693697835
   11      H      -1.0756163741     2.3568194292    -0.8138497039
   12      C      -0.0879760195    -0.4616200851     1.0583670079
   13      H      -0.2648254963    -0.9346810211     2.0272979295
 ----------------------------------------------------------------

 Total job time:  1520.38s(wall), 4700.94s(cpu)
        *  Thank you very much for using Q-Chem.  Have a nice day.  *
