 Q-Chem 5.0, Q-Chem, Inc., Pleasanton, CA (2017)
 Q-Chem 5.0.2 for Intel X86 EM64T Linux

User input:
--------------------------------------------------------------
$molecule
0 2
C        1.5360581838    0.4300917552   -0.3803367058
C        0.8437398609   -0.7972775747    0.0801986016
C       -0.5859840657   -1.0274911740   -0.3819403129
C       -1.1171137319    0.3117013152    0.1012930658
C       -0.4277233869    1.5419629907   -0.3563521428
N        0.8835531480    1.5723176511   -0.5867061993
H        2.6089057712    0.4191080093   -0.5624229367
H        1.4551752420   -1.6865592210    0.2246630577
H       -1.0692904091   -1.8717942217   -0.8535197564
H       -2.1914735373    0.3770133129    0.2647657020
H       -0.9907430647    2.4598855674   -0.5142812157
C       -0.3510370587   -0.6403404668    1.0056614644
H       -0.5940669521   -1.0886179431    1.9589773776
$end

$rem
method                b3lyp
basis                 6-31g(d)
unrestricted          true
symmetry              off
sym_ignore            true
incdft                false
incfock               0
scf_convergence       8
thresh                14
jobtype               opt
scf_guess             core
scf_guess_mix         5
scf_algorithm         diis
max_scf_cycles        100
geom_opt_max_cycles   300
$end

--------------------------------------------------------------

   18    -286.8584616693      7.49E-09 Convergence criterion met
 Total energy in the final basis set = -286.85846167

             Standard Nuclear Orientation (Angstroms)
    I     Atom           X                Y                Z
 ----------------------------------------------------------------
    1      C       1.5360253282     0.4300916143    -0.3801114367
    2      C       0.8437544071    -0.7974397119     0.0798822764
    3      C      -0.5862466520    -1.0274836295    -0.3820258608
    4      C      -1.1170077234     0.3117676513     0.1015896275
    5      C      -0.4276996931     1.5419333912    -0.3564318933
    6      N       0.8835071537     1.5722516612    -0.5869184177
    7      H       2.6090857182     0.4195212083    -0.5610841245
    8      H       1.4550905977    -1.6868571385     0.2237080226
    9      H      -1.0696760219    -1.8716988620    -0.8536588081
   10      H      -2.1913568186     0.3771031146     0.2651805570
   11      H      -0.9909250331     2.4596109741    -0.5150379808
   12      C      -0.3510240979    -0.6406732085     1.0055382051
   13      H      -0.5935271654    -1.0881270641     1.9593698327
 ----------------------------------------------------------------

   13    -286.8584622286      9.14E-09 Convergence criterion met
 Total energy in the final basis set = -286.85846223
 Final energy is   -286.858462228647
 **  OPTIMIZATION CONVERGED  **

                    Orbital Energies (a.u.)
 --------------------------------------------------------------

 Alpha MOs
 -- Occupied --
-14.317 -10.216 -10.216 -10.215 -10.215 -10.215 -10.215  -0.960
 -0.896  -0.750  -0.643  -0.635  -0.589  -0.545  -0.482  -0.471
 -0.465  -0.408  -0.395  -0.365  -0.338  -0.299  -0.299  -0.227
 -0.173

 Beta MOs
 -- Occupied --
-14.320 -10.216 -10.216 -10.213 -10.213 -10.207 -10.207  -0.955
 -0.894  -0.738  -0.631  -0.630  -0.584  -0.542  -0.476  -0.466
 -0.463  -0.405  -0.377  -0.362  -0.323  -0.298  -0.294  -0.227

          Ground-State Mulliken Net Atomic Charges

     Atom                 Charge (a.u.)    Spin (a.u.)
  --------------------------------------------------------
      1 C                     0.076983       0.597211
      2 C                    -0.221408      -0.053354
      3 C                    -0.089602       0.094634
      4 C                    -0.221485      -0.053331
      5 C                     0.076989       0.597313
      6 N                    -0.395548      -0.205388
      7 H                     0.135615      -0.032058
      8 H                     0.142114       0.000521
      9 H                     0.154196      -0.004286
     10 H                     0.142182       0.000516
     11 H                     0.135569      -0.032058
     12 C                    -0.089855       0.094563
     13 H                     0.154249      -0.004284
  --------------------------------------------------------
  Sum of atomic charges =    -0.000000

                    Cartesian Multipole Moments
 -----------------------------------------------------------------
    Charge (ESU x 10^10)
                -0.0000
    Dipole Moment (Debye)
         X      -1.3902      Y      -2.4741      Z       0.9227
       Tot       2.9842
    Quadrupole Moments (Debye-Ang)
        XX     -37.5988     XY      -3.4898     YY     -41.8099
        XZ       0.3444     YZ       0.7394     ZZ     -41.5448

 Total job time:  34.42s(wall), 95.83s(cpu)
        *  Thank you very much for using Q-Chem.  Have a nice day.  *
