 Q-Chem 5.0, Q-Chem, Inc., Pleasanton, CA (2017)
 Q-Chem 5.0.2 for Intel X86 EM64T Linux

User input:
--------------------------------------------------------------
$molecule
0 2
C        1.2425381889    0.3277067981    0.1556931888
C        0.6185841314   -1.1159574044   -0.1200185899
C       -0.7301473301   -1.0005102675   -0.6579204265
C       -1.0530701161    0.1890328593    0.2437334282
C       -0.5328981012    1.4036383952   -0.5154230618
N        0.7466367192    1.4463055258   -0.6061543810
H        2.2974935004    0.3227267799    0.4101118343
H        1.2981713623   -1.9610977736   -0.1679564784
H       -1.1741498152   -1.3199322085   -1.5978683366
H       -2.0430188986    0.2589434978    0.6999742199
H       -1.1685166811    2.1036960416   -1.0553544173
C        0.2142445099   -0.2292037454    1.0727384849
H        0.2841325299   -0.4253484982    2.1384445353
$end

$rem
method                b3lyp
basis                 6-31g(d)
unrestricted          true
symmetry              off
sym_ignore            true
incdft                false
incfock               0
scf_convergence       8
thresh                14
jobtype               opt
scf_guess             core
scf_guess_mix         5
scf_algorithm         diis
max_scf_cycles        100
geom_opt_max_cycles   300
$end

--------------------------------------------------------------

   20    -286.8383165822      7.94E-09 Convergence criterion met
 Total energy in the final basis set = -286.83831658

             Standard Nuclear Orientation (Angstroms)
    I     Atom           X                Y                Z
 ----------------------------------------------------------------
    1      C       1.2422399493     0.3283039978     0.1566710642
    2      C       0.6188020220    -1.1154327636    -0.1210607696
    3      C      -0.7310645796    -1.0010553686    -0.6565060105
    4      C      -1.0528460772     0.1895122595     0.2441151890
    5      C      -0.5327345617     1.4032272737    -0.5170596057
    6      N       0.7468272647     1.4474523375    -0.6048320560
    7      H       2.2969805758     0.3233545377     0.4119880653
    8      H       1.2988002095    -1.9601987702    -0.1699889899
    9      H      -1.1754432709    -1.3203542939    -1.5962849372
   10      H      -2.0427702117     0.2605054066     0.7001106451
   11      H      -1.1680351359     2.1027516675    -1.0581353313
   12      C       0.2141857041    -0.2302907152     1.0727854620
   13      H       0.2850581112    -0.4277755689     2.1381972745
 ----------------------------------------------------------------

   16    -286.8383168783      9.24E-09 Convergence criterion met
 Total energy in the final basis set = -286.83831688
 Final energy is   -286.838316878291
 **  OPTIMIZATION CONVERGED  **

                    Orbital Energies (a.u.)
 --------------------------------------------------------------

 Alpha MOs
 -- Occupied --
-14.320 -10.224 -10.220 -10.210 -10.209 -10.208 -10.206  -0.968
 -0.856  -0.749  -0.664  -0.606  -0.571  -0.535  -0.517  -0.467
 -0.439  -0.405  -0.400  -0.356  -0.336  -0.298  -0.274  -0.256
 -0.182

 Beta MOs
 -- Occupied --
-14.319 -10.222 -10.219 -10.211 -10.209 -10.207 -10.193  -0.964
 -0.850  -0.741  -0.652  -0.601  -0.567  -0.528  -0.511  -0.461
 -0.434  -0.402  -0.394  -0.348  -0.332  -0.292  -0.262  -0.251

          Ground-State Mulliken Net Atomic Charges

     Atom                 Charge (a.u.)    Spin (a.u.)
  --------------------------------------------------------
      1 C                    -0.019080       0.097127
      2 C                    -0.163371      -0.095909
      3 C                    -0.066660       0.887875
      4 C                    -0.258097      -0.065640
      5 C                     0.088585       0.047216
      6 N                    -0.342220       0.039233
      7 H                     0.151396       0.002845
      8 H                     0.147240       0.005268
      9 H                     0.136197      -0.019158
     10 H                     0.142858       0.022721
     11 H                     0.143076       0.001359
     12 C                    -0.108011       0.077848
     13 H                     0.148085      -0.000785
  --------------------------------------------------------
  Sum of atomic charges =    -0.000000

                    Cartesian Multipole Moments
 -----------------------------------------------------------------
    Charge (ESU x 10^10)
                -0.0000
    Dipole Moment (Debye)
         X      -1.0504      Y      -1.3968      Z       1.0697
       Tot       2.0491
    Quadrupole Moments (Debye-Ang)
        XX     -38.1256     XY      -4.4421     YY     -43.2666
        XZ       2.6364     YZ       1.3509     ZZ     -39.9323

 Total job time:  39.59s(wall), 109.45s(cpu)
        *  Thank you very much for using Q-Chem.  Have a nice day.  *
