 Q-Chem 5.0, Q-Chem, Inc., Pleasanton, CA (2017)
 Q-Chem 5.0.2 for Intel X86 EM64T Linux

User input:
--------------------------------------------------------------
$molecule
0 2
C        1.3772623140    0.4049408716   -0.0672527251
C        0.7611129004   -0.9488782542   -0.2778986225
C       -0.6719715728   -0.9530604616   -0.6998641752
C       -1.0633702502    0.3306264497    0.1101737772
C       -0.4706481616    1.5454422381   -0.4890304707
N        0.8344950765    1.5704780198   -0.5266055203
H        2.3726390996    0.4210152040    0.3668266948
H        1.3778590650   -1.8413108447   -0.2528312794
H       -1.2204218134   -1.8771879946   -0.5154279062
H       -2.0830306320    0.3836792246    0.4873865625
H       -1.0605770415    2.3517152493   -0.9159952618
C       -0.0030230499   -0.4352083788    0.9060941557
H       -0.1721013794   -0.9632802123    1.8429491382
$end

$rem
method                b3lyp
basis                 6-31+g(d,p)
unrestricted          true
symmetry              off
sym_ignore            true
incdft                false
incfock               0
scf_convergence       8
thresh                14
jobtype               sp
scf_guess             core
scf_guess_mix         5
scf_algorithm         diis
max_scf_cycles        100
$end

--------------------------------------------------------------

             Standard Nuclear Orientation (Angstroms)
    I     Atom           X                Y                Z
 ----------------------------------------------------------------
    1      C       1.3772623140     0.4049408716    -0.0672527251
    2      C       0.7611129004    -0.9488782542    -0.2778986225
    3      C      -0.6719715728    -0.9530604616    -0.6998641752
    4      C      -1.0633702502     0.3306264497     0.1101737772
    5      C      -0.4706481616     1.5454422381    -0.4890304707
    6      N       0.8344950765     1.5704780198    -0.5266055203
    7      H       2.3726390996     0.4210152040     0.3668266948
    8      H       1.3778590650    -1.8413108447    -0.2528312794
    9      H      -1.2204218134    -1.8771879946    -0.5154279062
   10      H      -2.0830306320     0.3836792246     0.4873865625
   11      H      -1.0605770415     2.3517152493    -0.9159952618
   12      C      -0.0030230499    -0.4352083788     0.9060941557
   13      H      -0.1721013794    -0.9632802123     1.8429491382
 ----------------------------------------------------------------

   23    -286.8141169352      5.78E-09 Convergence criterion met
 Total energy in the final basis set = -286.81411694

                    Orbital Energies (a.u.)
 --------------------------------------------------------------

 Alpha MOs
 -- Occupied --
-14.332 -10.251 -10.246 -10.232 -10.230 -10.228 -10.220  -0.979
 -0.888  -0.767  -0.655  -0.637  -0.613  -0.556  -0.505  -0.461
 -0.449  -0.433  -0.422  -0.381  -0.374  -0.321  -0.281  -0.256
 -0.139

 Beta MOs
 -- Occupied --
-14.332 -10.252 -10.243 -10.228 -10.227 -10.224 -10.216  -0.975
 -0.884  -0.759  -0.647  -0.627  -0.610  -0.553  -0.500  -0.458
 -0.443  -0.429  -0.412  -0.374  -0.366  -0.303  -0.274  -0.246

          Ground-State Mulliken Net Atomic Charges

     Atom                 Charge (a.u.)    Spin (a.u.)
  --------------------------------------------------------
      1 C                    -0.242190       0.257294
      2 C                    -0.065268       0.038664
      3 C                    -0.146821       0.611048
      4 C                    -0.267242      -0.045474
      5 C                     0.018353       0.245808
      6 N                    -0.196714      -0.011292
      7 H                     0.142667      -0.009770
      8 H                     0.150505      -0.007099
      9 H                     0.152536      -0.003614
     10 H                     0.139728      -0.002826
     11 H                     0.128422      -0.013588
     12 C                     0.037839      -0.074809
     13 H                     0.148186       0.015658
  --------------------------------------------------------
  Sum of atomic charges =    -0.000000

                    Cartesian Multipole Moments
 -----------------------------------------------------------------
    Charge (ESU x 10^10)
                 0.0000
    Dipole Moment (Debye)
         X      -1.0485      Y      -2.6643      Z       1.8856
       Tot       3.4283
    Quadrupole Moments (Debye-Ang)
        XX     -39.0145     XY      -4.7183     YY     -43.6170
        XZ       0.6460     YZ      -0.6420     ZZ     -44.4031

 Total job time:  33.61s(wall), 119.11s(cpu)
        *  Thank you very much for using Q-Chem.  Have a nice day.  *
