 Q-Chem 5.0, Q-Chem, Inc., Pleasanton, CA (2017)
 Q-Chem 5.0.2 for Intel X86 EM64T Linux

User input:
--------------------------------------------------------------
$molecule
0 2
C        1.3772623140    0.4049408716   -0.0672527251
C        0.7611129004   -0.9488782542   -0.2778986225
C       -0.6719715728   -0.9530604616   -0.6998641752
C       -1.0633702502    0.3306264497    0.1101737772
C       -0.4706481616    1.5454422381   -0.4890304707
N        0.8344950765    1.5704780198   -0.5266055203
H        2.3726390996    0.4210152040    0.3668266948
H        1.3778590650   -1.8413108447   -0.2528312794
H       -1.2204218134   -1.8771879946   -0.5154279062
H       -2.0830306320    0.3836792246    0.4873865625
H       -1.0605770415    2.3517152493   -0.9159952618
C       -0.0030230499   -0.4352083788    0.9060941557
H       -0.1721013794   -0.9632802123    1.8429491382
$end

$rem
method                b3lyp
basis                 6-31+g(d,p)
unrestricted          true
symmetry              off
sym_ignore            true
incdft                false
incfock               0
scf_convergence       8
thresh                14
jobtype               ts
scf_guess             read
scf_algorithm         diis
max_scf_cycles        100
geom_opt_max_cycles   500
geom_opt_dmax         100
geom_opt_tol_gradient 10
geom_opt_hessian      read
$end

--------------------------------------------------------------

    2    -286.8141169353      2.67E-10 Convergence criterion met
 Total energy in the final basis set = -286.81411694
   14    -286.8141664409      8.78E-09 Convergence criterion met
 Total energy in the final basis set = -286.81416644

             Standard Nuclear Orientation (Angstroms)
    I     Atom           X                Y                Z
 ----------------------------------------------------------------
    1      C       1.3742278557     0.4014843027    -0.0610793554
    2      C       0.7640185265    -0.9508681791    -0.2822476319
    3      C      -0.6703146929    -0.9559696448    -0.6888736443
    4      C      -1.0647642511     0.3319883106     0.1074993517
    5      C      -0.4732064868     1.5468368979    -0.4922206483
    6      N       0.8333362027     1.5692151877    -0.5262705666
    7      H       2.3688133974     0.4173022771     0.3731848058
    8      H       1.3793023572    -1.8434813208    -0.2591524987
    9      H      -1.2241890610    -1.8796960569    -0.5232866599
   10      H      -2.0833540749     0.3841562167     0.4859461899
   11      H      -1.0618651204     2.3549328816    -0.9153437227
   12      C      -0.0011358156    -0.4320078700     0.9049676822
   13      H      -0.1626442822    -0.9549218919     1.8454010655
 ----------------------------------------------------------------

   12    -286.8141667226      4.65E-09 Convergence criterion met
 Total energy in the final basis set = -286.81416672
 Final energy is   -286.814166722637
 **  OPTIMIZATION CONVERGED  **

                    Orbital Energies (a.u.)
 --------------------------------------------------------------

 Alpha MOs
 -- Occupied --
-14.331 -10.252 -10.246 -10.232 -10.230 -10.228 -10.219  -0.979
 -0.888  -0.767  -0.655  -0.636  -0.613  -0.557  -0.506  -0.461
 -0.450  -0.433  -0.422  -0.380  -0.374  -0.321  -0.280  -0.257
 -0.136

 Beta MOs
 -- Occupied --
-14.331 -10.253 -10.243 -10.228 -10.227 -10.224 -10.215  -0.974
 -0.883  -0.760  -0.648  -0.627  -0.610  -0.553  -0.501  -0.458
 -0.444  -0.430  -0.412  -0.374  -0.366  -0.303  -0.273  -0.247

          Ground-State Mulliken Net Atomic Charges

     Atom                 Charge (a.u.)    Spin (a.u.)
  --------------------------------------------------------
      1 C                    -0.247479       0.247621
      2 C                    -0.062991       0.044484
      3 C                    -0.144367       0.606493
      4 C                    -0.261738      -0.043714
      5 C                     0.015172       0.245470
      6 N                    -0.198716      -0.006458
      7 H                     0.142865      -0.009171
      8 H                     0.150846      -0.007299
      9 H                     0.152870      -0.004931
     10 H                     0.139616      -0.002857
     11 H                     0.128428      -0.013457
     12 C                     0.036675      -0.071112
     13 H                     0.148819       0.014932
  --------------------------------------------------------
  Sum of atomic charges =    -0.000000

                    Cartesian Multipole Moments
 -----------------------------------------------------------------
    Charge (ESU x 10^10)
                -0.0000
    Dipole Moment (Debye)
         X      -1.0610      Y      -2.7170      Z       1.8789
       Tot       3.4696
    Quadrupole Moments (Debye-Ang)
        XX     -39.0001     XY      -4.7360     YY     -43.6587
        XZ       0.7075     YZ      -0.5725     ZZ     -44.3343

 Total job time:  58.01s(wall), 199.06s(cpu)
        *  Thank you very much for using Q-Chem.  Have a nice day.  *
