 Q-Chem 5.0, Q-Chem, Inc., Pleasanton, CA (2017)
 Q-Chem 5.0.2 for Intel X86 EM64T Linux

User input:
--------------------------------------------------------------
$molecule
0 2
C        1.3742278557    0.4014843027   -0.0610793554
C        0.7640185265   -0.9508681791   -0.2822476319
C       -0.6703146929   -0.9559696448   -0.6888736443
C       -1.0647642511    0.3319883106    0.1074993517
C       -0.4732064868    1.5468368979   -0.4922206483
N        0.8333362027    1.5692151877   -0.5262705666
H        2.3688133974    0.4173022771    0.3731848058
H        1.3793023572   -1.8434813208   -0.2591524987
H       -1.2241890610   -1.8796960569   -0.5232866599
H       -2.0833540749    0.3841562167    0.4859461899
H       -1.0618651204    2.3549328816   -0.9153437227
C       -0.0011358156   -0.4320078700    0.9049676822
H       -0.1626442822   -0.9549218919    1.8454010655
$end

$rem
method                b3lyp
basis                 6-31+g(d,p)
unrestricted          true
symmetry              off
sym_ignore            true
incdft                false
incfock               0
scf_convergence       8
thresh                14
jobtype               freq
scf_guess             read
scf_algorithm         diis
max_scf_cycles        100
$end

--------------------------------------------------------------

             Standard Nuclear Orientation (Angstroms)
    I     Atom           X                Y                Z
 ----------------------------------------------------------------
    1      C       1.3742278557     0.4014843027    -0.0610793554
    2      C       0.7640185265    -0.9508681791    -0.2822476319
    3      C      -0.6703146929    -0.9559696448    -0.6888736443
    4      C      -1.0647642511     0.3319883106     0.1074993517
    5      C      -0.4732064868     1.5468368979    -0.4922206483
    6      N       0.8333362027     1.5692151877    -0.5262705666
    7      H       2.3688133974     0.4173022771     0.3731848058
    8      H       1.3793023572    -1.8434813208    -0.2591524987
    9      H      -1.2241890610    -1.8796960569    -0.5232866599
   10      H      -2.0833540749     0.3841562167     0.4859461899
   11      H      -1.0618651204     2.3549328816    -0.9153437227
   12      C      -0.0011358156    -0.4320078700     0.9049676822
   13      H      -0.1626442822    -0.9549218919     1.8454010655
 ----------------------------------------------------------------

    2    -286.8141667227      1.84E-10 Convergence criterion met
 Total energy in the final basis set = -286.81416672

                    Orbital Energies (a.u.)
 --------------------------------------------------------------

 Alpha MOs
 -- Occupied --
-14.331 -10.252 -10.246 -10.232 -10.230 -10.228 -10.219  -0.979
 -0.888  -0.767  -0.655  -0.636  -0.613  -0.557  -0.506  -0.461
 -0.450  -0.433  -0.422  -0.380  -0.374  -0.321  -0.280  -0.257
 -0.136

 Beta MOs
 -- Occupied --
-14.331 -10.253 -10.243 -10.228 -10.227 -10.224 -10.215  -0.974
 -0.883  -0.760  -0.648  -0.627  -0.610  -0.553  -0.501  -0.458
 -0.444  -0.430  -0.412  -0.374  -0.366  -0.303  -0.273  -0.247

          Ground-State Mulliken Net Atomic Charges

     Atom                 Charge (a.u.)    Spin (a.u.)
  --------------------------------------------------------
      1 C                    -0.247479       0.247621
      2 C                    -0.062991       0.044483
      3 C                    -0.144367       0.606492
      4 C                    -0.261738      -0.043714
      5 C                     0.015172       0.245470
      6 N                    -0.198716      -0.006458
      7 H                     0.142865      -0.009171
      8 H                     0.150846      -0.007299
      9 H                     0.152870      -0.004931
     10 H                     0.139616      -0.002857
     11 H                     0.128428      -0.013457
     12 C                     0.036675      -0.071110
     13 H                     0.148819       0.014932
  --------------------------------------------------------
  Sum of atomic charges =     0.000000

                    Cartesian Multipole Moments
 -----------------------------------------------------------------
    Charge (ESU x 10^10)
                -0.0000
    Dipole Moment (Debye)
         X      -1.0610      Y      -2.7170      Z       1.8789
       Tot       3.4696
    Quadrupole Moments (Debye-Ang)
        XX     -39.0001     XY      -4.7360     YY     -43.6587
        XZ       0.7075     YZ      -0.5725     ZZ     -44.3343

 Frequency:      -924.84                 145.27                 442.71
 Force Cnst:      2.7494                 0.0664                 0.3097
 Red. Mass:       5.4557                 5.3417                 2.6818
 IR Intens:      246.640                 32.274                  1.718
 Frequency:       462.99                 647.35                 663.72
 Force Cnst:      0.7298                 1.3614                 0.7330
 Red. Mass:       5.7785                 5.5140                 2.8242
 IR Intens:        5.781                 18.569                 35.504
 Frequency:       690.71                 758.94                 785.16
 Force Cnst:      0.7920                 0.4834                 0.5832
 Red. Mass:       2.8175                 1.4243                 1.6057
 IR Intens:        6.448                 16.702                 53.879
 Frequency:       812.95                 853.28                 873.02
 Force Cnst:      0.6481                 0.6408                 0.8871
 Red. Mass:       1.6644                 1.4937                 1.9756
 IR Intens:        4.005                  6.731                 48.549
 Frequency:       914.36                 938.34                 984.37
 Force Cnst:      0.7906                 0.8795                 1.3304
 Red. Mass:       1.6051                 1.6953                 2.3303
 IR Intens:        2.014                 14.498                  2.568
 Frequency:      1020.27                1050.84                1066.40
 Force Cnst:      1.1909                 1.2453                 1.0285
 Red. Mass:       1.9418                 1.9140                 1.5351
 IR Intens:        1.917                  5.021                  4.293
 Frequency:      1150.99                1168.80                1191.95
 Force Cnst:      1.8947                 1.0697                 1.3478
 Red. Mass:       2.4275                 1.3290                 1.6101
 IR Intens:       11.924                  7.257                 11.419
 Frequency:      1228.84                1315.15                1339.46
 Force Cnst:      1.6799                 1.4263                 2.0685
 Red. Mass:       1.8882                 1.3996                 1.9568
 IR Intens:        7.344                  8.657                 12.547
 Frequency:      1364.16                1394.14                1531.60
 Force Cnst:      2.3408                 2.5595                 6.0485
 Red. Mass:       2.1349                 2.2350                 4.3763
 IR Intens:        9.994                  4.299                 71.302
 Frequency:      3146.18                3163.68                3173.49
 Force Cnst:      6.3453                 6.4271                 6.4793
 Red. Mass:       1.0880                 1.0899                 1.0919
 IR Intens:       12.173                  7.165                 16.882
 Frequency:      3200.21                3204.82                3212.17
 Force Cnst:      6.5658                 6.6122                 6.6566
 Red. Mass:       1.0881                 1.0927                 1.0950
 IR Intens:        8.069                 13.110                  5.755

 STANDARD THERMODYNAMIC QUANTITIES AT   298.15 K  AND     1.00 ATM

   This Molecule has  1 Imaginary Frequencies
   Zero point vibrational energy:       62.753 kcal/mol

   Atom    1 Element C  Has Mass   12.00000
   Atom    2 Element C  Has Mass   12.00000
   Atom    3 Element C  Has Mass   12.00000
   Atom    4 Element C  Has Mass   12.00000
   Atom    5 Element C  Has Mass   12.00000
   Atom    6 Element N  Has Mass   14.00307
   Atom    7 Element H  Has Mass    1.00783
   Atom    8 Element H  Has Mass    1.00783
   Atom    9 Element H  Has Mass    1.00783
   Atom   10 Element H  Has Mass    1.00783
   Atom   11 Element H  Has Mass    1.00783
   Atom   12 Element C  Has Mass   12.00000
   Atom   13 Element H  Has Mass    1.00783
   Molecular Mass:    92.050050 amu
   Principal axes and moments of inertia in amu*Bohr^2:
                             1           2           3
    Eigenvalues --      348.36288   457.81455   632.57006
          X               0.21103     0.97742    -0.01070
          Y               0.96239    -0.20584     0.17731
          Z              -0.17110     0.04771     0.98410
   Rotational Symmetry Number is   1
   The Molecule is an Asymmetric Top
   Translational Enthalpy:        0.889 kcal/mol
   Rotational Enthalpy:           0.889 kcal/mol
   Vibrational Enthalpy:         64.177 kcal/mol
   gas constant (RT):             0.592 kcal/mol
   Translational Entropy:        39.471  cal/mol.K
   Rotational Entropy:           26.114  cal/mol.K
   Vibrational Entropy:           7.197  cal/mol.K

   Total Enthalpy:               66.547 kcal/mol
   Total Entropy:                72.783  cal/mol.K

 Total job time:  576.00s(wall), 564.01s(cpu)
        *  Thank you very much for using Q-Chem.  Have a nice day.  *
