 Q-Chem 5.0, Q-Chem, Inc., Pleasanton, CA (2017)
 Q-Chem 5.0.2 for Intel X86 EM64T Linux

User input:
--------------------------------------------------------------
$molecule
0 2
C        1.3772623140    0.4049408716   -0.0672527251
C        0.7611129004   -0.9488782542   -0.2778986225
C       -0.6719715728   -0.9530604616   -0.6998641752
C       -1.0633702502    0.3306264497    0.1101737772
C       -0.4706481616    1.5454422381   -0.4890304707
N        0.8344950765    1.5704780198   -0.5266055203
H        2.3726390996    0.4210152040    0.3668266948
H        1.3778590650   -1.8413108447   -0.2528312794
H       -1.2204218134   -1.8771879946   -0.5154279062
H       -2.0830306320    0.3836792246    0.4873865625
H       -1.0605770415    2.3517152493   -0.9159952618
C       -0.0030230499   -0.4352083788    0.9060941557
H       -0.1721013794   -0.9632802123    1.8429491382
$end

$rem
method                b3lyp
basis                 6-31g(d)
unrestricted          true
symmetry              off
sym_ignore            true
incdft                false
incfock               0
scf_convergence       8
thresh                14
jobtype               sp
scf_guess             read
scf_algorithm         diis
max_scf_cycles        100
$end

--------------------------------------------------------------

             Standard Nuclear Orientation (Angstroms)
    I     Atom           X                Y                Z
 ----------------------------------------------------------------
    1      C       1.3772623140     0.4049408716    -0.0672527251
    2      C       0.7611129004    -0.9488782542    -0.2778986225
    3      C      -0.6719715728    -0.9530604616    -0.6998641752
    4      C      -1.0633702502     0.3306264497     0.1101737772
    5      C      -0.4706481616     1.5454422381    -0.4890304707
    6      N       0.8344950765     1.5704780198    -0.5266055203
    7      H       2.3726390996     0.4210152040     0.3668266948
    8      H       1.3778590650    -1.8413108447    -0.2528312794
    9      H      -1.2204218134    -1.8771879946    -0.5154279062
   10      H      -2.0830306320     0.3836792246     0.4873865625
   11      H      -1.0605770415     2.3517152493    -0.9159952618
   12      C      -0.0030230499    -0.4352083788     0.9060941557
   13      H      -0.1721013794    -0.9632802123     1.8429491382
 ----------------------------------------------------------------

    2    -286.7917785060      4.72E-09 Convergence criterion met
 Total energy in the final basis set = -286.79177851

                    Orbital Energies (a.u.)
 --------------------------------------------------------------

 Alpha MOs
 -- Occupied --
-14.316 -10.239 -10.234 -10.219 -10.218 -10.216 -10.208  -0.966
 -0.875  -0.755  -0.644  -0.625  -0.603  -0.547  -0.497  -0.450
 -0.439  -0.423  -0.412  -0.369  -0.363  -0.310  -0.267  -0.244
 -0.126

 Beta MOs
 -- Occupied --
-14.316 -10.240 -10.231 -10.216 -10.216 -10.210 -10.204  -0.961
 -0.871  -0.748  -0.636  -0.616  -0.600  -0.543  -0.492  -0.446
 -0.432  -0.419  -0.401  -0.363  -0.355  -0.291  -0.261  -0.234

          Ground-State Mulliken Net Atomic Charges

     Atom                 Charge (a.u.)    Spin (a.u.)
  --------------------------------------------------------
      1 C                     0.026447       0.246327
      2 C                    -0.172295       0.066046
      3 C                    -0.105643       0.576266
      4 C                    -0.249923       0.016033
      5 C                     0.096072       0.255489
      6 N                    -0.374133      -0.011759
      7 H                     0.152389      -0.010287
      8 H                     0.158730      -0.007401
      9 H                     0.146221      -0.004914
     10 H                     0.148681      -0.003166
     11 H                     0.138830      -0.013940
     12 C                    -0.125182      -0.126784
     13 H                     0.159806       0.018091
  --------------------------------------------------------
  Sum of atomic charges =    -0.000000

                    Cartesian Multipole Moments
 -----------------------------------------------------------------
    Charge (ESU x 10^10)
                -0.0000
    Dipole Moment (Debye)
         X      -0.9803      Y      -2.4733      Z       1.7708
       Tot       3.1960
    Quadrupole Moments (Debye-Ang)
        XX     -37.9764     XY      -4.1023     YY     -41.9814
        XZ       0.6263     YZ      -0.6301     ZZ     -42.6049

 Total job time:  2.92s(wall), 6.59s(cpu)
        *  Thank you very much for using Q-Chem.  Have a nice day.  *
