 Q-Chem 5.0, Q-Chem, Inc., Pleasanton, CA (2017)
 Q-Chem 5.0.2 for Intel X86 EM64T Linux

User input:
--------------------------------------------------------------
$molecule
0 2
C        1.3772623140    0.4049408716   -0.0672527251
C        0.7611129004   -0.9488782542   -0.2778986225
C       -0.6719715728   -0.9530604616   -0.6998641752
C       -1.0633702502    0.3306264497    0.1101737772
C       -0.4706481616    1.5454422381   -0.4890304707
N        0.8344950765    1.5704780198   -0.5266055203
H        2.3726390996    0.4210152040    0.3668266948
H        1.3778590650   -1.8413108447   -0.2528312794
H       -1.2204218134   -1.8771879946   -0.5154279062
H       -2.0830306320    0.3836792246    0.4873865625
H       -1.0605770415    2.3517152493   -0.9159952618
C       -0.0030230499   -0.4352083788    0.9060941557
H       -0.1721013794   -0.9632802123    1.8429491382
$end

$rem
method                b3lyp
basis                 6-31+g(d,p)
unrestricted          true
symmetry              off
sym_ignore            true
incdft                false
incfock               0
scf_convergence       8
thresh                14
jobtype               freq
scf_guess             read
scf_algorithm         diis
max_scf_cycles        100
$end

--------------------------------------------------------------

             Standard Nuclear Orientation (Angstroms)
    I     Atom           X                Y                Z
 ----------------------------------------------------------------
    1      C       1.3772623140     0.4049408716    -0.0672527251
    2      C       0.7611129004    -0.9488782542    -0.2778986225
    3      C      -0.6719715728    -0.9530604616    -0.6998641752
    4      C      -1.0633702502     0.3306264497     0.1101737772
    5      C      -0.4706481616     1.5454422381    -0.4890304707
    6      N       0.8344950765     1.5704780198    -0.5266055203
    7      H       2.3726390996     0.4210152040     0.3668266948
    8      H       1.3778590650    -1.8413108447    -0.2528312794
    9      H      -1.2204218134    -1.8771879946    -0.5154279062
   10      H      -2.0830306320     0.3836792246     0.4873865625
   11      H      -1.0605770415     2.3517152493    -0.9159952618
   12      C      -0.0030230499    -0.4352083788     0.9060941557
   13      H      -0.1721013794    -0.9632802123     1.8429491382
 ----------------------------------------------------------------

    2    -286.8141169353      1.53E-09 Convergence criterion met
 Total energy in the final basis set = -286.81411694

                    Orbital Energies (a.u.)
 --------------------------------------------------------------

 Alpha MOs
 -- Occupied --
-14.332 -10.251 -10.246 -10.232 -10.230 -10.228 -10.220  -0.979
 -0.888  -0.767  -0.655  -0.637  -0.613  -0.556  -0.505  -0.461
 -0.449  -0.433  -0.422  -0.381  -0.374  -0.321  -0.281  -0.256
 -0.139

 Beta MOs
 -- Occupied --
-14.332 -10.252 -10.243 -10.228 -10.227 -10.224 -10.216  -0.975
 -0.884  -0.759  -0.647  -0.627  -0.610  -0.553  -0.500  -0.458
 -0.443  -0.429  -0.412  -0.374  -0.366  -0.303  -0.274  -0.246

          Ground-State Mulliken Net Atomic Charges

     Atom                 Charge (a.u.)    Spin (a.u.)
  --------------------------------------------------------
      1 C                    -0.242190       0.257295
      2 C                    -0.065268       0.038664
      3 C                    -0.146820       0.611049
      4 C                    -0.267242      -0.045474
      5 C                     0.018353       0.245812
      6 N                    -0.196714      -0.011295
      7 H                     0.142667      -0.009770
      8 H                     0.150505      -0.007099
      9 H                     0.152536      -0.003614
     10 H                     0.139728      -0.002826
     11 H                     0.128422      -0.013589
     12 C                     0.037839      -0.074812
     13 H                     0.148186       0.015658
  --------------------------------------------------------
  Sum of atomic charges =    -0.000000

                    Cartesian Multipole Moments
 -----------------------------------------------------------------
    Charge (ESU x 10^10)
                -0.0000
    Dipole Moment (Debye)
         X      -1.0485      Y      -2.6643      Z       1.8856
       Tot       3.4283
    Quadrupole Moments (Debye-Ang)
        XX     -39.0145     XY      -4.7183     YY     -43.6170
        XZ       0.6460     YZ      -0.6420     ZZ     -44.4031

 Frequency:      -917.87                 174.62                 441.38
 Force Cnst:      2.6479                 0.0947                 0.3132
 Red. Mass:       5.3345                 5.2687                 2.7288
 IR Intens:      223.372                 28.975                  1.109
 Frequency:       465.86                 646.83                 667.09
 Force Cnst:      0.7294                 1.4505                 0.7539
 Red. Mass:       5.7047                 5.8841                 2.8755
 IR Intens:        6.437                 14.475                 38.201
 Frequency:       691.14                 760.06                 789.76
 Force Cnst:      0.8462                 0.4956                 0.5774
 Red. Mass:       3.0067                 1.4561                 1.5713
 IR Intens:        6.787                 19.788                 48.251
 Frequency:       818.34                 854.68                 876.76
 Force Cnst:      0.6405                 0.6414                 0.9140
 Red. Mass:       1.6234                 1.4903                 2.0181
 IR Intens:        4.570                  4.283                 56.661
 Frequency:       916.87                 941.71                 986.88
 Force Cnst:      0.7947                 0.8707                 1.3238
 Red. Mass:       1.6045                 1.6663                 2.3069
 IR Intens:        2.585                 14.080                  2.140
 Frequency:      1020.55                1053.82                1070.89
 Force Cnst:      1.1681                 1.2142                 1.0352
 Red. Mass:       1.9035                 1.8556                 1.5321
 IR Intens:        1.891                  5.402                  3.128
 Frequency:      1157.72                1172.99                1196.39
 Force Cnst:      1.8789                 1.1098                 1.3722
 Red. Mass:       2.3793                 1.3690                 1.6271
 IR Intens:       10.398                  7.590                 12.010
 Frequency:      1230.44                1318.82                1338.03
 Force Cnst:      1.6721                 1.4306                 2.0838
 Red. Mass:       1.8746                 1.3960                 1.9755
 IR Intens:        7.530                  7.910                 12.979
 Frequency:      1365.64                1397.86                1536.66
 Force Cnst:      2.2157                 2.6590                 6.1779
 Red. Mass:       2.0165                 2.3096                 4.4405
 IR Intens:       11.080                  3.824                 67.556
 Frequency:      3138.69                3158.00                3167.72
 Force Cnst:      6.3134                 6.4026                 6.4559
 Red. Mass:       1.0877                 1.0896                 1.0920
 IR Intens:       14.198                  7.154                 16.986
 Frequency:      3193.58                3197.11                3205.37
 Force Cnst:      6.5387                 6.5821                 6.6274
 Red. Mass:       1.0881                 1.0929                 1.0948
 IR Intens:        8.999                 12.684                  6.822

 STANDARD THERMODYNAMIC QUANTITIES AT   298.15 K  AND     1.00 ATM

   This Molecule has  1 Imaginary Frequencies
   Zero point vibrational energy:       62.833 kcal/mol

   Atom    1 Element C  Has Mass   12.00000
   Atom    2 Element C  Has Mass   12.00000
   Atom    3 Element C  Has Mass   12.00000
   Atom    4 Element C  Has Mass   12.00000
   Atom    5 Element C  Has Mass   12.00000
   Atom    6 Element N  Has Mass   14.00307
   Atom    7 Element H  Has Mass    1.00783
   Atom    8 Element H  Has Mass    1.00783
   Atom    9 Element H  Has Mass    1.00783
   Atom   10 Element H  Has Mass    1.00783
   Atom   11 Element H  Has Mass    1.00783
   Atom   12 Element C  Has Mass   12.00000
   Atom   13 Element H  Has Mass    1.00783
   Molecular Mass:    92.050050 amu
   Principal axes and moments of inertia in amu*Bohr^2:
                             1           2           3
    Eigenvalues --      348.48633   458.37341   632.40294
          X               0.21964     0.97553    -0.01017
          Y               0.96046    -0.21440     0.17762
          Z              -0.17110     0.04878     0.98405
   Rotational Symmetry Number is   1
   The Molecule is an Asymmetric Top
   Translational Enthalpy:        0.889 kcal/mol
   Rotational Enthalpy:           0.889 kcal/mol
   Vibrational Enthalpy:         64.219 kcal/mol
   gas constant (RT):             0.592 kcal/mol
   Translational Entropy:        39.471  cal/mol.K
   Rotational Entropy:           26.116  cal/mol.K
   Vibrational Entropy:           6.818  cal/mol.K

   Total Enthalpy:               66.589 kcal/mol
   Total Entropy:                72.405  cal/mol.K

 Total job time:  576.79s(wall), 563.18s(cpu)
        *  Thank you very much for using Q-Chem.  Have a nice day.  *
