 Q-Chem 5.0, Q-Chem, Inc., Pleasanton, CA (2017)
 Q-Chem 5.0.2 for Intel X86 EM64T Linux

User input:
--------------------------------------------------------------
$molecule
0 2
C        1.4457183755    0.4074814409   -0.1678735598
C        0.7684004651   -0.9396038460   -0.1083388340
C       -0.6406978107   -0.9760371976   -0.5666720868
C       -1.0830414547    0.2911143881    0.1558790080
C       -0.4874861001    1.5135109045   -0.4590688607
N        0.8225658919    1.5314612313   -0.5715288215
H        2.5298982767    0.4459381304   -0.0132147944
H        1.3970986229   -1.8277943252   -0.0187015761
H       -1.2168765575   -1.7814331386   -1.0231411244
H       -2.1289372645    0.3638152003    0.4693697835
H       -1.0756163741    2.3568194292   -0.8138497039
C       -0.0879760195   -0.4616200851    1.0583670079
H       -0.2648254963   -0.9346810211    2.0272979295
$end

$rem
method                b3lyp
basis                 6-31g(d)
unrestricted          true
symmetry              off
sym_ignore            true
incdft                false
incfock               0
scf_convergence       8
thresh                14
jobtype               sp
scf_guess             core
scf_guess_mix         5
scf_algorithm         diis
max_scf_cycles        100
$end

--------------------------------------------------------------

             Standard Nuclear Orientation (Angstroms)
    I     Atom           X                Y                Z
 ----------------------------------------------------------------
    1      C       1.4457183755     0.4074814409    -0.1678735598
    2      C       0.7684004651    -0.9396038460    -0.1083388340
    3      C      -0.6406978107    -0.9760371976    -0.5666720868
    4      C      -1.0830414547     0.2911143881     0.1558790080
    5      C      -0.4874861001     1.5135109045    -0.4590688607
    6      N       0.8225658919     1.5314612313    -0.5715288215
    7      H       2.5298982767     0.4459381304    -0.0132147944
    8      H       1.3970986229    -1.8277943252    -0.0187015761
    9      H      -1.2168765575    -1.7814331386    -1.0231411244
   10      H      -2.1289372645     0.3638152003     0.4693697835
   11      H      -1.0756163741     2.3568194292    -0.8138497039
   12      C      -0.0879760195    -0.4616200851     1.0583670079
   13      H      -0.2648254963    -0.9346810211     2.0272979295
 ----------------------------------------------------------------

   24    -286.7979215771      3.25E-09 Convergence criterion met
 Total energy in the final basis set = -286.79792158

                    Orbital Energies (a.u.)
 --------------------------------------------------------------

 Alpha MOs
 -- Occupied --
-14.312 -10.231 -10.230 -10.222 -10.220 -10.211 -10.198  -0.950
 -0.870  -0.746  -0.633  -0.623  -0.606  -0.541  -0.484  -0.458
 -0.445  -0.410  -0.407  -0.372  -0.358  -0.301  -0.268  -0.218
 -0.139

 Beta MOs
 -- Occupied --
-14.314 -10.230 -10.227 -10.222 -10.221 -10.203 -10.191  -0.945
 -0.867  -0.735  -0.626  -0.613  -0.601  -0.538  -0.479  -0.453
 -0.439  -0.407  -0.395  -0.364  -0.355  -0.290  -0.262  -0.205

          Ground-State Mulliken Net Atomic Charges

     Atom                 Charge (a.u.)    Spin (a.u.)
  --------------------------------------------------------
      1 C                     0.044448       0.523076
      2 C                    -0.172093      -0.029666
      3 C                    -0.097709       0.238896
      4 C                    -0.227275      -0.044006
      5 C                     0.074645       0.486879
      6 N                    -0.371037      -0.116461
      7 H                     0.130060      -0.017595
      8 H                     0.149597      -0.000021
      9 H                     0.165212      -0.012686
     10 H                     0.141921       0.002103
     11 H                     0.129895      -0.025078
     12 C                    -0.129811      -0.008582
     13 H                     0.162147       0.003142
  --------------------------------------------------------
  Sum of atomic charges =     0.000000

                    Cartesian Multipole Moments
 -----------------------------------------------------------------
    Charge (ESU x 10^10)
                 0.0000
    Dipole Moment (Debye)
         X      -1.4800      Y      -2.8971      Z       0.9941
       Tot       3.4017
    Quadrupole Moments (Debye-Ang)
        XX     -38.1392     XY      -3.5677     YY     -42.2450
        XZ       1.3353     YZ       0.9222     ZZ     -41.1564

 Total job time:  18.73s(wall), 61.11s(cpu)
        *  Thank you very much for using Q-Chem.  Have a nice day.  *
