 Q-Chem 5.0, Q-Chem, Inc., Pleasanton, CA (2017)
 Q-Chem 5.0.2 for Intel X86 EM64T Linux

User input:
--------------------------------------------------------------
$molecule
0 2
C        1.4457183755    0.4074814409   -0.1678735598
C        0.7684004651   -0.9396038460   -0.1083388340
C       -0.6406978107   -0.9760371976   -0.5666720868
C       -1.0830414547    0.2911143881    0.1558790080
C       -0.4874861001    1.5135109045   -0.4590688607
N        0.8225658919    1.5314612313   -0.5715288215
H        2.5298982767    0.4459381304   -0.0132147944
H        1.3970986229   -1.8277943252   -0.0187015761
H       -1.2168765575   -1.7814331386   -1.0231411244
H       -2.1289372645    0.3638152003    0.4693697835
H       -1.0756163741    2.3568194292   -0.8138497039
C       -0.0879760195   -0.4616200851    1.0583670079
H       -0.2648254963   -0.9346810211    2.0272979295
$end

$rem
method                b3lyp
basis                 6-31g(d)
unrestricted          true
symmetry              off
sym_ignore            true
incdft                false
incfock               0
scf_convergence       8
thresh                14
jobtype               ts
scf_guess             read
scf_algorithm         diis
max_scf_cycles        100
geom_opt_max_cycles   500
geom_opt_dmax         100
geom_opt_tol_gradient 10
geom_opt_hessian      read
$end

--------------------------------------------------------------

    2    -286.7979215771      2.65E-10 Convergence criterion met
 Total energy in the final basis set = -286.79792158
   16    -286.7951915627      6.22E-09 Convergence criterion met
 Total energy in the final basis set = -286.79519156
   16    -286.7929725947      6.71E-09 Convergence criterion met
 Total energy in the final basis set = -286.79297259
   16    -286.7910486755      7.50E-09 Convergence criterion met
 Total energy in the final basis set = -286.79104868
   16    -286.7894828364      7.68E-09 Convergence criterion met
 Total energy in the final basis set = -286.78948284
   16    -286.7883061462      7.34E-09 Convergence criterion met
 Total energy in the final basis set = -286.78830615
   16    -286.7875228234      6.54E-09 Convergence criterion met
 Total energy in the final basis set = -286.78752282
   16    -286.7871028675      5.44E-09 Convergence criterion met
   13    -286.7917781127      4.39E-09 Convergence criterion met
 Total energy in the final basis set = -286.79177811
   11    -286.7917784319      6.07E-09 Convergence criterion met
 Total energy in the final basis set = -286.79177843
   11    -286.7917784538      8.79E-09 Convergence criterion met
 Total energy in the final basis set = -286.79177845
   14    -286.7917664615      7.83E-09 Convergence criterion met
 Total energy in the final basis set = -286.79176646
   14    -286.7917784703      7.72E-09 Convergence criterion met
 Total energy in the final basis set = -286.79177847
   11    -286.7917784196      8.57E-09 Convergence criterion met
 Total energy in the final basis set = -286.79177842

             Standard Nuclear Orientation (Angstroms)
    I     Atom           X                Y                Z
 ----------------------------------------------------------------
    1      C       1.3772623140     0.4049408716    -0.0672527251
    2      C       0.7611129004    -0.9488782542    -0.2778986225
    3      C      -0.6719715728    -0.9530604616    -0.6998641752
    4      C      -1.0633702502     0.3306264497     0.1101737772
    5      C      -0.4706481616     1.5454422381    -0.4890304707
    6      N       0.8344950765     1.5704780198    -0.5266055203
    7      H       2.3726390996     0.4210152040     0.3668266948
    8      H       1.3778590650    -1.8413108447    -0.2528312794
    9      H      -1.2204218134    -1.8771879946    -0.5154279062
   10      H      -2.0830306320     0.3836792246     0.4873865625
   11      H      -1.0605770415     2.3517152493    -0.9159952618
   12      C      -0.0030230499    -0.4352083788     0.9060941557
   13      H      -0.1721013794    -0.9632802123     1.8429491382
 ----------------------------------------------------------------

   11    -286.7917785060      5.04E-09 Convergence criterion met
 Total energy in the final basis set = -286.79177851
 Final energy is   -286.791778505961
 **  OPTIMIZATION CONVERGED  **

                    Orbital Energies (a.u.)
 --------------------------------------------------------------

 Alpha MOs
 -- Occupied --
-14.316 -10.239 -10.234 -10.219 -10.218 -10.216 -10.208  -0.966
 -0.875  -0.755  -0.644  -0.625  -0.603  -0.547  -0.497  -0.450
 -0.439  -0.423  -0.412  -0.369  -0.363  -0.310  -0.267  -0.244
 -0.126

 Beta MOs
 -- Occupied --
-14.316 -10.240 -10.231 -10.216 -10.216 -10.210 -10.204  -0.961
 -0.871  -0.748  -0.636  -0.616  -0.600  -0.543  -0.492  -0.446
 -0.432  -0.419  -0.401  -0.363  -0.355  -0.291  -0.261  -0.234

          Ground-State Mulliken Net Atomic Charges

     Atom                 Charge (a.u.)    Spin (a.u.)
  --------------------------------------------------------
      1 C                     0.026447       0.246327
      2 C                    -0.172295       0.066046
      3 C                    -0.105643       0.576266
      4 C                    -0.249923       0.016033
      5 C                     0.096072       0.255488
      6 N                    -0.374133      -0.011758
      7 H                     0.152389      -0.010287
      8 H                     0.158730      -0.007401
      9 H                     0.146221      -0.004915
     10 H                     0.148681      -0.003166
     11 H                     0.138830      -0.013940
     12 C                    -0.125182      -0.126784
     13 H                     0.159806       0.018091
  --------------------------------------------------------
  Sum of atomic charges =    -0.000000

                    Cartesian Multipole Moments
 -----------------------------------------------------------------
    Charge (ESU x 10^10)
                -0.0000
    Dipole Moment (Debye)
         X      -0.9803      Y      -2.4733      Z       1.7708
       Tot       3.1960
    Quadrupole Moments (Debye-Ang)
        XX     -37.9764     XY      -4.1023     YY     -41.9814
        XZ       0.6263     YZ      -0.6301     ZZ     -42.6049

 Total job time:  452.65s(wall), 1392.89s(cpu)
        *  Thank you very much for using Q-Chem.  Have a nice day.  *
