 Q-Chem 5.0, Q-Chem, Inc., Pleasanton, CA (2017)
 Q-Chem 5.0.2 for Intel X86 EM64T Linux

User input:
--------------------------------------------------------------
$molecule
0 2
C        1.4457183755    0.4074814409   -0.1678735598
C        0.7684004651   -0.9396038460   -0.1083388340
C       -0.6406978107   -0.9760371976   -0.5666720868
C       -1.0830414547    0.2911143881    0.1558790080
C       -0.4874861001    1.5135109045   -0.4590688607
N        0.8225658919    1.5314612313   -0.5715288215
H        2.5298982767    0.4459381304   -0.0132147944
H        1.3970986229   -1.8277943252   -0.0187015761
H       -1.2168765575   -1.7814331386   -1.0231411244
H       -2.1289372645    0.3638152003    0.4693697835
H       -1.0756163741    2.3568194292   -0.8138497039
C       -0.0879760195   -0.4616200851    1.0583670079
H       -0.2648254963   -0.9346810211    2.0272979295
$end

$rem
method                b3lyp
basis                 6-31g(d)
unrestricted          true
symmetry              off
sym_ignore            true
incdft                false
incfock               0
scf_convergence       8
thresh                14
jobtype               freq
scf_guess             read
scf_algorithm         diis
max_scf_cycles        100
$end

--------------------------------------------------------------

             Standard Nuclear Orientation (Angstroms)
    I     Atom           X                Y                Z
 ----------------------------------------------------------------
    1      C       1.4457183755     0.4074814409    -0.1678735598
    2      C       0.7684004651    -0.9396038460    -0.1083388340
    3      C      -0.6406978107    -0.9760371976    -0.5666720868
    4      C      -1.0830414547     0.2911143881     0.1558790080
    5      C      -0.4874861001     1.5135109045    -0.4590688607
    6      N       0.8225658919     1.5314612313    -0.5715288215
    7      H       2.5298982767     0.4459381304    -0.0132147944
    8      H       1.3970986229    -1.8277943252    -0.0187015761
    9      H      -1.2168765575    -1.7814331386    -1.0231411244
   10      H      -2.1289372645     0.3638152003     0.4693697835
   11      H      -1.0756163741     2.3568194292    -0.8138497039
   12      C      -0.0879760195    -0.4616200851     1.0583670079
   13      H      -0.2648254963    -0.9346810211     2.0272979295
 ----------------------------------------------------------------

    2    -286.7979215771      5.07E-10 Convergence criterion met
 Total energy in the final basis set = -286.79792158

                    Orbital Energies (a.u.)
 --------------------------------------------------------------

 Alpha MOs
 -- Occupied --
-14.312 -10.231 -10.230 -10.222 -10.220 -10.211 -10.198  -0.950
 -0.870  -0.746  -0.633  -0.623  -0.606  -0.541  -0.484  -0.458
 -0.445  -0.410  -0.407  -0.372  -0.358  -0.301  -0.268  -0.218
 -0.139

 Beta MOs
 -- Occupied --
-14.314 -10.230 -10.227 -10.222 -10.221 -10.203 -10.191  -0.945
 -0.867  -0.735  -0.626  -0.613  -0.601  -0.538  -0.479  -0.453
 -0.439  -0.407  -0.395  -0.364  -0.355  -0.290  -0.262  -0.205

          Ground-State Mulliken Net Atomic Charges

     Atom                 Charge (a.u.)    Spin (a.u.)
  --------------------------------------------------------
      1 C                     0.044448       0.523076
      2 C                    -0.172093      -0.029666
      3 C                    -0.097709       0.238897
      4 C                    -0.227275      -0.044006
      5 C                     0.074645       0.486879
      6 N                    -0.371037      -0.116461
      7 H                     0.130060      -0.017595
      8 H                     0.149597      -0.000021
      9 H                     0.165212      -0.012686
     10 H                     0.141921       0.002103
     11 H                     0.129895      -0.025078
     12 C                    -0.129811      -0.008583
     13 H                     0.162147       0.003142
  --------------------------------------------------------
  Sum of atomic charges =     0.000000

                    Cartesian Multipole Moments
 -----------------------------------------------------------------
    Charge (ESU x 10^10)
                 0.0000
    Dipole Moment (Debye)
         X      -1.4800      Y      -2.8971      Z       0.9941
       Tot       3.4017
    Quadrupole Moments (Debye-Ang)
        XX     -38.1392     XY      -3.5677     YY     -42.2450
        XZ       1.3353     YZ       0.9222     ZZ     -41.1564

 Frequency:      -368.34                 330.33                 399.56
 Force Cnst:      0.5245                 0.2346                 0.3101
 Red. Mass:       6.5614                 3.6490                 3.2966
 IR Intens:        2.594                  3.821                  3.499
 Frequency:       507.23                 519.70                 609.55
 Force Cnst:      0.2286                 0.2848                 1.0636
 Red. Mass:       1.5081                 1.7894                 4.8588
 IR Intens:       19.610                  5.945                  6.417
 Frequency:       638.34                 682.73                 696.53
 Force Cnst:      0.5369                 1.0244                 0.4737
 Red. Mass:       2.2364                 3.7302                 1.6572
 IR Intens:       38.704                  5.430                 49.504
 Frequency:       725.01                 819.89                 861.42
 Force Cnst:      0.4770                 1.4879                 0.8718
 Red. Mass:       1.5402                 3.7568                 1.9941
 IR Intens:        5.413                  6.094                  3.255
 Frequency:       916.82                 946.97                 979.42
 Force Cnst:      0.7911                 0.9970                 2.0604
 Red. Mass:       1.5975                 1.8871                 3.6455
 IR Intens:        8.271                 10.294                 28.370
 Frequency:      1028.80                1039.95                1087.11
 Force Cnst:      0.9050                 1.0895                 1.4961
 Red. Mass:       1.4512                 1.7098                 2.1486
 IR Intens:        0.642                  4.419                  1.464
 Frequency:      1180.27                1185.02                1209.95
 Force Cnst:      1.4398                 1.1578                 1.4519
 Red. Mass:       1.7543                 1.3993                 1.6833
 IR Intens:        7.490                  4.135                  1.401
 Frequency:      1266.69                1310.19                1352.14
 Force Cnst:      1.9119                 2.2408                 1.7485
 Red. Mass:       2.0225                 2.2156                 1.6231
 IR Intens:        3.561                  4.003                  3.974
 Frequency:      1388.13                1400.77                1496.14
 Force Cnst:      2.1621                 2.3277                 3.3789
 Red. Mass:       1.9045                 2.0135                 2.5620
 IR Intens:        6.400                  6.198                 13.011
 Frequency:      3097.65                3107.78                3140.06
 Force Cnst:      6.1491                 6.1934                 6.3277
 Red. Mass:       1.0877                 1.0884                 1.0892
 IR Intens:       28.676                 22.120                 24.965
 Frequency:      3153.46                3182.77                3186.42
 Force Cnst:      6.4159                 6.5219                 6.5436
 Red. Mass:       1.0950                 1.0927                 1.0939
 IR Intens:        8.966                  9.277                 11.245

 STANDARD THERMODYNAMIC QUANTITIES AT   298.15 K  AND     1.00 ATM

   This Molecule has  1 Imaginary Frequencies
   Zero point vibrational energy:       62.110 kcal/mol

   Atom    1 Element C  Has Mass   12.00000
   Atom    2 Element C  Has Mass   12.00000
   Atom    3 Element C  Has Mass   12.00000
   Atom    4 Element C  Has Mass   12.00000
   Atom    5 Element C  Has Mass   12.00000
   Atom    6 Element N  Has Mass   14.00307
   Atom    7 Element H  Has Mass    1.00783
   Atom    8 Element H  Has Mass    1.00783
   Atom    9 Element H  Has Mass    1.00783
   Atom   10 Element H  Has Mass    1.00783
   Atom   11 Element H  Has Mass    1.00783
   Atom   12 Element C  Has Mass   12.00000
   Atom   13 Element H  Has Mass    1.00783
   Molecular Mass:    92.050050 amu
   Principal axes and moments of inertia in amu*Bohr^2:
                             1           2           3
    Eigenvalues --      361.49323   466.25229   647.17780
          X               0.29281     0.95422     0.06100
          Y               0.92162    -0.29865     0.24782
          Z              -0.25470     0.01635     0.96688
   Rotational Symmetry Number is   1
   The Molecule is an Asymmetric Top
   Translational Enthalpy:        0.889 kcal/mol
   Rotational Enthalpy:           0.889 kcal/mol
   Vibrational Enthalpy:         63.504 kcal/mol
   gas constant (RT):             0.592 kcal/mol
   Translational Entropy:        39.471  cal/mol.K
   Rotational Entropy:           26.192  cal/mol.K
   Vibrational Entropy:           6.398  cal/mol.K

   Total Enthalpy:               65.874 kcal/mol
   Total Entropy:                72.061  cal/mol.K

 Total job time:  271.66s(wall), 266.04s(cpu)
        *  Thank you very much for using Q-Chem.  Have a nice day.  *
