 Q-Chem 5.0, Q-Chem, Inc., Pleasanton, CA (2017)
 Q-Chem 5.0.2 for Intel X86 EM64T Linux

User input:
--------------------------------------------------------------
$molecule
0 2
C        1.4177021600    0.0543434341   -0.3888520303
C        0.5781031846   -1.1013930735   -0.9253618226
C       -0.8960485377   -0.6688224365   -1.6295286630
C       -1.3356791352   -0.1032072525   -0.3805350028
C       -0.7514935394    0.7764702614   -1.2547273340
N        0.7697528512    1.1361611096   -1.2956737704
H        2.4879135803    0.2039273517   -0.3879580028
H        0.6241658325   -2.1564528769   -0.9975508124
H       -0.9626313800   -0.2598942976   -2.6160908271
H       -2.3728045647    0.0309752892   -0.1003484796
H       -1.1832681148    1.6141095182   -1.7968389364
C        0.1788893960   -0.2258373259    0.2552919842
H        0.0405310079   -0.7290887633    1.3044864252
$end

$rem
method                b3lyp
basis                 6-31g(d)
unrestricted          true
symmetry              off
sym_ignore            true
incdft                false
incfock               0
scf_convergence       8
thresh                14
jobtype               opt
scf_guess             read
scf_algorithm         diis
max_scf_cycles        100
geom_opt_tol_gradient 600
geom_opt_tol_displacement 2400
geom_opt_tol_energy   200
geom_opt_max_cycles   100
$end

--------------------------------------------------------------

    2    -286.5986829163      1.16E-09 Convergence criterion met
 Total energy in the final basis set = -286.59868292
   15    -286.6460069400      7.33E-09 Convergence criterion met
 Total energy in the final basis set = -286.64600694
   14    -286.6854870044      7.49E-09 Convergence criterion met
 Total energy in the final basis set = -286.68548700
   14    -286.7170652046      6.73E-09 Convergence criterion met
 Total energy in the final basis set = -286.71706520
   14    -286.7416889334      6.25E-09 Convergence criterion met
 Total energy in the final basis set = -286.74168893
   14    -286.7605467556      6.07E-09 Convergence criterion met
 Total energy in the final basis set = -286.76054676
   14    -286.7748796055      6.67E-09 Convergence criterion met
 Total energy in the final basis set = -286.77487961
   14    -286.7857080725      7.62E-09 Convergence criterion met
   13    -286.8379151194      6.41E-09 Convergence criterion met
 Total energy in the final basis set = -286.83791512
   14    -286.8381931996      3.58E-09 Convergence criterion met
 Total energy in the final basis set = -286.83819320
   13    -286.8382245391      7.14E-09 Convergence criterion met
 Total energy in the final basis set = -286.83822454
   11    -286.8383108368      7.51E-09 Convergence criterion met
 Total energy in the final basis set = -286.83831084
   11    -286.8383302494      7.40E-09 Convergence criterion met
 Total energy in the final basis set = -286.83833025
   11    -286.8383360531      9.96E-09 Convergence criterion met
 Total energy in the final basis set = -286.83833605

             Standard Nuclear Orientation (Angstroms)
    I     Atom           X                Y                Z
 ----------------------------------------------------------------
    1      C       1.1389700950     0.1292927100    -0.5398806510
    2      C       0.4587168116    -1.2400567910    -0.9986113190
    3      C      -0.8548881420    -0.9940061278    -1.5791829556
    4      C      -1.1607413835     0.1109527691    -0.5705794129
    5      C      -0.5428201493     1.3678980890    -1.1695418398
    6      N       0.7400027234     1.3489130546    -1.1969251178
    7      H       2.1781750450     0.0395353251    -0.2401576564
    8      H       1.0962071952    -2.1118531546    -1.1079012478
    9      H      -1.2650329492    -1.1842394086    -2.5683265235
   10      H      -2.1679607708     0.1872980060    -0.1548473252
   11      H      -1.1141807614     2.1562790077    -1.6570513096
   12      C       0.0396212599    -0.4640361889     0.2644350382
   13      H       0.0490637667    -0.7746863525     1.3048830485
 ----------------------------------------------------------------

   10    -286.8383378628      7.57E-09 Convergence criterion met
 Total energy in the final basis set = -286.83833786
 Final energy is   -286.838337862759
 **  OPTIMIZATION CONVERGED  **

                    Orbital Energies (a.u.)
 --------------------------------------------------------------

 Alpha MOs
 -- Occupied --
-14.320 -10.224 -10.220 -10.210 -10.209 -10.208 -10.206  -0.968
 -0.856  -0.749  -0.664  -0.606  -0.571  -0.535  -0.517  -0.467
 -0.439  -0.405  -0.400  -0.356  -0.336  -0.298  -0.274  -0.256
 -0.182

 Beta MOs
 -- Occupied --
-14.319 -10.222 -10.219 -10.211 -10.209 -10.207 -10.193  -0.964
 -0.850  -0.741  -0.652  -0.602  -0.567  -0.528  -0.511  -0.461
 -0.434  -0.402  -0.394  -0.348  -0.332  -0.292  -0.262  -0.251

          Ground-State Mulliken Net Atomic Charges

     Atom                 Charge (a.u.)    Spin (a.u.)
  --------------------------------------------------------
      1 C                    -0.019087       0.096983
      2 C                    -0.163817      -0.095820
      3 C                    -0.066350       0.888572
      4 C                    -0.258012      -0.065616
      5 C                     0.088950       0.047051
      6 N                    -0.342288       0.038961
      7 H                     0.151363       0.002857
      8 H                     0.147267       0.005273
      9 H                     0.136192      -0.019081
     10 H                     0.142794       0.022749
     11 H                     0.143034       0.001363
     12 C                    -0.108161       0.077477
     13 H                     0.148116      -0.000769
  --------------------------------------------------------
  Sum of atomic charges =    -0.000000

                    Cartesian Multipole Moments
 -----------------------------------------------------------------
    Charge (ESU x 10^10)
                -0.0000
    Dipole Moment (Debye)
         X      -1.1700      Y      -1.4375      Z       0.8653
       Tot       2.0455
    Quadrupole Moments (Debye-Ang)
        XX     -38.6162     XY      -4.7207     YY     -42.6552
        XZ       3.0647     YZ       1.6643     ZZ     -40.8462

 Total job time:  1334.69s(wall), 1474.10s(cpu)
        *  Thank you very much for using Q-Chem.  Have a nice day.  *
