 Q-Chem 5.0, Q-Chem, Inc., Pleasanton, CA (2017)
 Q-Chem 5.0.2 for Intel X86 EM64T Linux

User input:
--------------------------------------------------------------
$molecule
0 2
C        1.6339636619    0.2624246827   -0.3412296002
C        1.1273590393   -1.0237511376   -0.3079788530
C       -0.2263373235   -1.4392159210   -0.0420776214
C       -1.2894469070   -0.6345044095    0.2408201842
C       -0.2241475645    1.6691147398    0.1546413918
N        1.0826518298    1.4840413253   -0.1500482659
H        2.6997469088    0.3273155821   -0.5711927536
H        1.8452117632   -1.8154075702   -0.5107490207
H       -0.4081458392   -2.5116939688   -0.0737876549
H       -2.2483621443   -1.1180590646    0.4153093004
H       -0.4686659678    2.7270849373    0.2763232645
C       -1.2857716224    0.8030701189    0.3352238194
H       -2.2380558343    1.2695806857    0.5747458094
$end

$rem
method                b3lyp
basis                 6-31g(d)
unrestricted          true
symmetry              off
sym_ignore            true
incdft                false
incfock               0
scf_convergence       8
thresh                14
jobtype               opt
scf_guess             read
scf_algorithm         diis
max_scf_cycles        100
geom_opt_tol_gradient 600
geom_opt_tol_displacement 2400
geom_opt_tol_energy   200
geom_opt_max_cycles   100
$end

--------------------------------------------------------------

    2    -286.9243050268      6.02E-10 Convergence criterion met
 Total energy in the final basis set = -286.92430503
   13    -286.9243091050      5.60E-09 Convergence criterion met
 Total energy in the final basis set = -286.92430911

             Standard Nuclear Orientation (Angstroms)
    I     Atom           X                Y                Z
 ----------------------------------------------------------------
    1      C       1.6347079005     0.2628962107    -0.3410474835
    2      C       1.1268220350    -1.0224858368    -0.3093919094
    3      C      -0.2261704207    -1.4390344664    -0.0423078471
    4      C      -1.2896224974    -0.6348315742     0.2405314400
    5      C      -0.2237938324     1.6682822026     0.1543689895
    6      N       1.0833677092     1.4832917253    -0.1458576138
    7      H       2.7007174603     0.3284708385    -0.5702536502
    8      H       1.8417245862    -1.8157705476    -0.5138371647
    9      H      -0.4066248807    -2.5117270782    -0.0717329559
   10      H      -2.2477759080    -1.1191562117     0.4181029695
   11      H      -0.4685184569     2.7257921388     0.2754748750
   12      C      -1.2865070794     0.8031240535     0.3330864155
   13      H      -2.2383266158     1.2711485455     0.5728639350
 ----------------------------------------------------------------

   12    -286.9243098936      8.89E-09 Convergence criterion met
 Total energy in the final basis set = -286.92430989
 Final energy is   -286.924309893554
 **  OPTIMIZATION CONVERGED  **

                    Orbital Energies (a.u.)
 --------------------------------------------------------------

 Alpha MOs
 -- Occupied --
-14.322 -10.232 -10.232 -10.212 -10.211 -10.201 -10.200  -0.922
 -0.818  -0.784  -0.693  -0.667  -0.551  -0.537  -0.518  -0.449
 -0.439  -0.414  -0.394  -0.386  -0.349  -0.322  -0.299  -0.251
 -0.162

 Beta MOs
 -- Occupied --
-14.314 -10.233 -10.233 -10.210 -10.210 -10.196 -10.196  -0.911
 -0.809  -0.777  -0.681  -0.665  -0.546  -0.535  -0.514  -0.447
 -0.438  -0.411  -0.383  -0.373  -0.348  -0.295  -0.276  -0.241

          Ground-State Mulliken Net Atomic Charges

     Atom                 Charge (a.u.)    Spin (a.u.)
  --------------------------------------------------------
      1 C                     0.035809      -0.113404
      2 C                    -0.131710       0.348318
      3 C                    -0.111132       0.091992
      4 C                    -0.111400       0.095500
      5 C                     0.035571      -0.111782
      6 N                    -0.423471       0.386909
      7 H                     0.142594       0.003441
      8 H                     0.134340      -0.018393
      9 H                     0.141966      -0.006553
     10 H                     0.141911      -0.006721
     11 H                     0.142582       0.003363
     12 C                    -0.131461       0.345603
     13 H                     0.134401      -0.018271
  --------------------------------------------------------
  Sum of atomic charges =     0.000000

                    Cartesian Multipole Moments
 -----------------------------------------------------------------
    Charge (ESU x 10^10)
                 0.0000
    Dipole Moment (Debye)
         X      -1.3188      Y      -1.8069      Z       0.1787
       Tot       2.2441
    Quadrupole Moments (Debye-Ang)
        XX     -37.4858     XY      -3.7013     YY     -39.5508
        XZ      -1.5103     YZ       1.0627     ZZ     -42.9640

 Total job time:  67.93s(wall), 97.08s(cpu)
        *  Thank you very much for using Q-Chem.  Have a nice day.  *
