 Q-Chem 5.0, Q-Chem, Inc., Pleasanton, CA (2017)
 Q-Chem 5.0.2 for Intel X86 EM64T Linux

User input:
--------------------------------------------------------------
$molecule
0 2
C        1.1628614809    0.3140366017   -0.0335672126
C        0.5169804464   -1.0228036285    0.2090919102
C       -0.8599300766   -1.0411957904    0.1779154810
C       -1.5633759342    0.1865118697    0.1678571773
C       -0.8329384327    1.3817530794    0.4950910246
N        0.4643430087    1.4629109280    0.5278058468
H        2.2216358766    0.3220924824    0.2965485999
H        1.1190061373   -1.8968895556    0.4322821220
H       -1.4015148711   -1.9793539218    0.2713346972
H       -2.6443347972    0.2170738949    0.0830064048
H       -1.3922230562    2.2723230023    0.7841077510
C        1.2714638955    0.3421676876   -1.5266481047
H        1.9212828036   -0.5253640497   -1.7762969451
$end

$rem
method                b3lyp
basis                 6-31+g(d,p)
unrestricted          true
symmetry              off
sym_ignore            true
incdft                false
incfock               0
scf_convergence       8
thresh                14
jobtype               opt
scf_guess             read
scf_algorithm         diis
max_scf_cycles        100
geom_opt_max_cycles   300
$end

--------------------------------------------------------------

    2    -286.8095607561      1.91E-09 Convergence criterion met
 Total energy in the final basis set = -286.80956076
   17    -286.8156937466      9.79E-09 Convergence criterion met
 Total energy in the final basis set = -286.81569375
   18    -286.8237616669      5.03E-09 Convergence criterion met
 Total energy in the final basis set = -286.82376167
   18    -286.8318607255      4.10E-09 Convergence criterion met
 Total energy in the final basis set = -286.83186073
   17    -286.8378266924      4.54E-09 Convergence criterion met
 Total energy in the final basis set = -286.83782669
   16    -286.8432436365      8.99E-09 Convergence criterion met
 Total energy in the final basis set = -286.84324364
   16    -286.8531469396      5.00E-09 Convergence criterion met
 Total energy in the final basis set = -286.85314694
   15    -286.8624516529      6.67E-09 Convergence criterion met
   14    -286.9461088954      8.99E-09 Convergence criterion met
 Total energy in the final basis set = -286.94610890
   14    -286.9461402671      6.00E-09 Convergence criterion met
 Total energy in the final basis set = -286.94614027
   13    -286.9461572698      9.32E-09 Convergence criterion met
 Total energy in the final basis set = -286.94615727
   13    -286.9461657577      7.56E-09 Convergence criterion met
 Total energy in the final basis set = -286.94616576
   12    -286.9461681226      8.55E-09 Convergence criterion met
 Total energy in the final basis set = -286.94616812
   13    -286.9461692514      2.80E-09 Convergence criterion met
 Total energy in the final basis set = -286.94616925

             Standard Nuclear Orientation (Angstroms)
    I     Atom           X                Y                Z
 ----------------------------------------------------------------
    1      C       1.4100559428     0.9305454817    -0.1131290358
    2      C       0.3398862992    -1.3597821828    -0.3875060774
    3      C      -0.9507851744    -1.1050805010    -0.0232129804
    4      C      -1.4964144716     0.1597748792     0.3997988874
    5      C      -0.8457065650     1.3749450950     0.5280714411
    6      N       0.4330626607     1.7671337956     0.3137907632
    7      H       2.3674107679     1.4423233066    -0.2231610037
    8      H       0.5823115890    -2.3787415379    -0.6806857982
    9      H      -1.6493752909    -1.9382544100    -0.0506981672
   10      H      -2.5536089802     0.1666255662     0.6526038946
   11      H      -1.4743176395     2.1988107072     0.8696991326
   12      C       1.4290924465    -0.4169169476    -0.4287496229
   13      H       2.3916448966    -0.8081206523    -0.7482926809
 ----------------------------------------------------------------

    8    -286.9461694368      8.30E-09 Convergence criterion met
 Total energy in the final basis set = -286.94616944
 Final energy is   -286.946169436828
 **  OPTIMIZATION CONVERGED  **

                    Orbital Energies (a.u.)
 --------------------------------------------------------------

 Alpha MOs
 -- Occupied --
-14.337 -10.243 -10.243 -10.223 -10.222 -10.212 -10.212  -0.934
 -0.829  -0.795  -0.703  -0.678  -0.562  -0.547  -0.527  -0.458
 -0.449  -0.423  -0.405  -0.395  -0.359  -0.333  -0.310  -0.263
 -0.174

 Beta MOs
 -- Occupied --
-14.329 -10.245 -10.245 -10.222 -10.221 -10.208 -10.208  -0.923
 -0.820  -0.788  -0.692  -0.676  -0.557  -0.544  -0.524  -0.456
 -0.448  -0.420  -0.392  -0.384  -0.357  -0.307  -0.287  -0.254

          Ground-State Mulliken Net Atomic Charges

     Atom                 Charge (a.u.)    Spin (a.u.)
  --------------------------------------------------------
      1 C                    -0.234847      -0.113462
      2 C                    -0.164609       0.080530
      3 C                    -0.164409       0.076571
      4 C                     0.100250       0.371858
      5 C                    -0.234449      -0.115345
      6 N                    -0.176853       0.375481
      7 H                     0.127056       0.003250
      8 H                     0.132762      -0.006841
      9 H                     0.132774      -0.006671
     10 H                     0.127352      -0.018740
     11 H                     0.126938       0.003336
     12 C                     0.100733       0.368642
     13 H                     0.127304      -0.018606
  --------------------------------------------------------
  Sum of atomic charges =     0.000000

                    Cartesian Multipole Moments
 -----------------------------------------------------------------
    Charge (ESU x 10^10)
                 0.0000
    Dipole Moment (Debye)
         X      -0.5673      Y      -2.3020      Z      -0.3985
       Tot       2.4041
    Quadrupole Moments (Debye-Ang)
        XX     -36.0971     XY      -1.5226     YY     -43.8203
        XZ      -2.5133     YZ       0.6565     ZZ     -44.4138

 Total job time:  1069.68s(wall), 3526.76s(cpu)
        *  Thank you very much for using Q-Chem.  Have a nice day.  *
