 Q-Chem 5.0, Q-Chem, Inc., Pleasanton, CA (2017)
 Q-Chem 5.0.2 for Intel X86 EM64T Linux

User input:
--------------------------------------------------------------
$molecule
0 2
C        1.4113439058    0.9279868202   -0.1214774014
C        0.3411742622   -1.3623408443   -0.3958544430
C       -0.9494972114   -1.1076391625   -0.0315613460
C       -1.4951265086    0.1572162177    0.3914505218
C       -0.8444186020    1.3723864335    0.5197230755
N        0.4343506237    1.7645751341    0.3054423976
H        2.3686987309    1.4397646451   -0.2315093693
H        0.5835995520   -2.3813001994   -0.6890341638
H       -1.6480873279   -1.9408130715   -0.0590465328
H       -2.5523210172    0.1640669047    0.6442555290
H       -1.4730296765    2.1962520457    0.8613507670
C        1.4303804095   -0.4194756091   -0.4370979885
H        2.3929328596   -0.8106793138   -0.7566410465
$end

$rem
method                b3lyp
basis                 6-31+g(d,p)
unrestricted          true
symmetry              off
sym_ignore            true
incdft                false
incfock               0
scf_convergence       6
thresh                14
jobtype               sp
scf_guess             read
scf_algorithm         diis
max_scf_cycles        100
stability_analysis    true
max_cis_cycles        100
cis_n_roots           4
$end

--------------------------------------------------------------

             Standard Nuclear Orientation (Angstroms)
    I     Atom           X                Y                Z
 ----------------------------------------------------------------
    1      C       1.4113439058     0.9279868202    -0.1214774014
    2      C       0.3411742622    -1.3623408443    -0.3958544430
    3      C      -0.9494972114    -1.1076391625    -0.0315613460
    4      C      -1.4951265086     0.1572162177     0.3914505218
    5      C      -0.8444186020     1.3723864335     0.5197230755
    6      N       0.4343506237     1.7645751341     0.3054423976
    7      H       2.3686987309     1.4397646451    -0.2315093693
    8      H       0.5835995520    -2.3813001994    -0.6890341638
    9      H      -1.6480873279    -1.9408130715    -0.0590465328
   10      H      -2.5523210172     0.1640669047     0.6442555290
   11      H      -1.4730296765     2.1962520457     0.8613507670
   12      C       1.4303804095    -0.4194756091    -0.4370979885
   13      H       2.3929328596    -0.8106793138    -0.7566410465
 ----------------------------------------------------------------

    2    -286.9461694368      1.78E-09 Convergence criterion met
 Total energy in the final basis set = -286.94616944

         TDDFT/TDA Excitation Energies
 ---------------------------------------------------

 Excited state   1: excitation energy (eV) =    1.0228
 Total energy for state  1:                  -286.90858161 au
    <S**2>     :  0.7998
    Trans. Mom.:  0.1072 X  -0.0212 Y  -0.0304 Z
    Strength   :     0.0003227163
    S(  1) --> V(  1) amplitude =  0.9918 alpha

 Excited state   2: excitation energy (eV) =    2.7833
 Total energy for state  2:                  -286.84388550 au
    <S**2>     :  0.7945
    Trans. Mom.:  0.0329 X  -0.0312 Y   0.1347 Z
    Strength   :     0.0013771513
    D( 24) --> S(  1) amplitude =  0.9905 beta

 Excited state   3: excitation energy (eV) =    3.2862
 Total energy for state  3:                  -286.82540246 au
    <S**2>     :  2.2767
    Trans. Mom.: -0.0002 X  -0.0010 Y  -0.0004 Z
    Strength   :     0.0000001010
    D( 24) --> V(  1) amplitude =  0.2675 alpha
    D( 24) --> V(  1) amplitude =  0.9611 beta

 Excited state   4: excitation energy (eV) =    3.4638
 Total energy for state  4:                  -286.81887560 au
    <S**2>     :  1.2454
    Trans. Mom.:  0.0001 X   0.0014 Y  -0.0002 Z
    Strength   :     0.0000001730
    D( 24) --> V(  1) amplitude =  0.9607 alpha
    D( 24) --> V(  1) amplitude = -0.2686 beta

 ---------------------------------------------------

                    Orbital Energies (a.u.)
 --------------------------------------------------------------

 Alpha MOs
 -- Occupied --
-14.337 -10.243 -10.243 -10.223 -10.222 -10.212 -10.212  -0.934
 -0.829  -0.795  -0.703  -0.678  -0.562  -0.547  -0.527  -0.458
 -0.449  -0.423  -0.405  -0.395  -0.359  -0.333  -0.310  -0.263
 -0.174

 Beta MOs
 -- Occupied --
-14.329 -10.245 -10.245 -10.222 -10.221 -10.208 -10.208  -0.923
 -0.820  -0.788  -0.692  -0.676  -0.557  -0.544  -0.524  -0.456
 -0.448  -0.420  -0.392  -0.384  -0.357  -0.307  -0.287  -0.254

          Ground-State Mulliken Net Atomic Charges

     Atom                 Charge (a.u.)    Spin (a.u.)
  --------------------------------------------------------
      1 C                    -0.234846      -0.113470
      2 C                    -0.164608       0.080513
      3 C                    -0.164411       0.076588
      4 C                     0.100251       0.371847
      5 C                    -0.234450      -0.115337
      6 N                    -0.176853       0.375482
      7 H                     0.127056       0.003251
      8 H                     0.132762      -0.006840
      9 H                     0.132774      -0.006673
     10 H                     0.127352      -0.018740
     11 H                     0.126938       0.003335
     12 C                     0.100732       0.368652
     13 H                     0.127303      -0.018606
  --------------------------------------------------------
  Sum of atomic charges =    -0.000000

                    Cartesian Multipole Moments
 -----------------------------------------------------------------
    Charge (ESU x 10^10)
                 0.0000
    Dipole Moment (Debye)
         X      -0.5673      Y      -2.3020      Z      -0.3985
       Tot       2.4041
    Quadrupole Moments (Debye-Ang)
        XX     -36.0986     XY      -1.5241     YY     -43.8085
        XZ      -2.5091     YZ       0.6767     ZZ     -44.4071

 Total job time:  202.23s(wall), 188.80s(cpu)
        *  Thank you very much for using Q-Chem.  Have a nice day.  *
