 Q-Chem 5.0, Q-Chem, Inc., Pleasanton, CA (2017)
 Q-Chem 5.0.2 for Intel X86 EM64T Linux

User input:
--------------------------------------------------------------
$molecule
0 2
C        1.6395100777    0.3451609971   -0.3100028192
C       -0.2211531196   -1.2755939720   -0.2424843522
C       -1.5563380943   -1.2410835257    0.0825366577
C       -1.8651038496    0.1019731226    0.4667816471
C       -0.7088529465    0.8399336434    0.3637695704
N        0.3005825054   -0.0014953951   -0.0717043778
H        2.2470402770   -0.4986071579   -0.6470935697
H        0.4093454472   -2.0851422859   -0.5799704535
H       -2.2374661139   -2.0797650654    0.0501634321
H       -2.8276077884    0.4791284675    0.7833983190
H       -0.5058838266    1.8822464275    0.5566785674
C        2.1766395392    1.5419295679   -0.1651284403
H        3.1492878923    1.9913151761   -0.2869441810
$end

$rem
method                b3lyp
basis                 6-31+g(d,p)
unrestricted          true
symmetry              off
sym_ignore            true
incdft                false
incfock               0
scf_convergence       6
thresh                14
jobtype               sp
scf_guess             read
scf_algorithm         diis
max_scf_cycles        100
stability_analysis    true
max_cis_cycles        100
cis_n_roots           4
$end

--------------------------------------------------------------

             Standard Nuclear Orientation (Angstroms)
    I     Atom           X                Y                Z
 ----------------------------------------------------------------
    1      C       1.6395100777     0.3451609971    -0.3100028192
    2      C      -0.2211531196    -1.2755939720    -0.2424843522
    3      C      -1.5563380943    -1.2410835257     0.0825366577
    4      C      -1.8651038496     0.1019731226     0.4667816471
    5      C      -0.7088529465     0.8399336434     0.3637695704
    6      N       0.3005825054    -0.0014953951    -0.0717043778
    7      H       2.2470402770    -0.4986071579    -0.6470935697
    8      H       0.4093454472    -2.0851422859    -0.5799704535
    9      H      -2.2374661139    -2.0797650654     0.0501634321
   10      H      -2.8276077884     0.4791284675     0.7833983190
   11      H      -0.5058838266     1.8822464275     0.5566785674
   12      C       2.1766395392     1.5419295679    -0.1651284403
   13      H       3.1492878923     1.9913151761    -0.2869441810
 ----------------------------------------------------------------

    2    -286.8971286447      5.11E-09 Convergence criterion met
 Total energy in the final basis set = -286.89712864

         TDDFT/TDA Excitation Energies
 ---------------------------------------------------

 Excited state   1: excitation energy (eV) =    1.8217
 Total energy for state  1:                  -286.83018250 au
    <S**2>     :  0.7720
    Trans. Mom.: -0.0328 X   0.0370 Y  -0.1480 Z
    Strength   :     0.0010872199
    D( 22) --> S(  1) amplitude = -0.2361 beta
    D( 23) --> S(  1) amplitude =  0.9170 beta
    D( 24) --> S(  1) amplitude =  0.3030 beta

 Excited state   2: excitation energy (eV) =    2.4198
 Total energy for state  2:                  -286.80820215 au
    <S**2>     :  0.8001
    Trans. Mom.:  0.0046 X  -0.0076 Y   0.0265 Z
    Strength   :     0.0000462785
    D( 23) --> S(  1) amplitude = -0.3113 beta
    D( 24) --> S(  1) amplitude =  0.9498 beta

 Excited state   3: excitation energy (eV) =    3.6956
 Total energy for state  3:                  -286.76131923 au
    <S**2>     :  2.7407
    Trans. Mom.: -0.0052 X  -0.0312 Y  -0.0060 Z
    Strength   :     0.0000939224
    S(  1) --> V(  1) amplitude =  0.7120 alpha
    D( 24) --> V(  1) amplitude = -0.6141 beta

 Excited state   4: excitation energy (eV) =    3.8404
 Total energy for state  4:                  -286.75599484 au
    <S**2>     :  2.7349
    Trans. Mom.:  0.0228 X   0.0252 Y  -0.0002 Z
    Strength   :     0.0001086600
    D( 22) --> V(  1) amplitude =  0.1564 alpha
    D( 24) --> V(  1) amplitude = -0.6581 alpha
    D( 23) --> V(  1) amplitude =  0.6824 beta

 ---------------------------------------------------

                    Orbital Energies (a.u.)
 --------------------------------------------------------------

 Alpha MOs
 -- Occupied --
-14.405 -10.254 -10.227 -10.218 -10.214 -10.184 -10.183  -1.001
 -0.829  -0.749  -0.732  -0.629  -0.585  -0.554  -0.523  -0.485
 -0.439  -0.436  -0.427  -0.396  -0.385  -0.316  -0.265  -0.237
 -0.224

 Beta MOs
 -- Occupied --
-14.404 -10.256 -10.218 -10.214 -10.212 -10.184 -10.183  -1.000
 -0.824  -0.737  -0.729  -0.617  -0.584  -0.553  -0.510  -0.476
 -0.436  -0.436  -0.425  -0.395  -0.385  -0.313  -0.229  -0.224

          Ground-State Mulliken Net Atomic Charges

     Atom                 Charge (a.u.)    Spin (a.u.)
  --------------------------------------------------------
      1 C                     0.038562      -0.356008
      2 C                    -0.194276      -0.015976
      3 C                    -0.087563      -0.016925
      4 C                    -0.059418      -0.018020
      5 C                    -0.267619       0.016788
      6 N                     0.025957       0.020720
      7 H                     0.142972       0.068356
      8 H                     0.132433       0.000058
      9 H                     0.125957       0.000996
     10 H                     0.125696       0.000991
     11 H                     0.146186      -0.001109
     12 C                    -0.289222       1.301031
     13 H                     0.160337      -0.000902
  --------------------------------------------------------
  Sum of atomic charges =     0.000000

                    Cartesian Multipole Moments
 -----------------------------------------------------------------
    Charge (ESU x 10^10)
                 0.0000
    Dipole Moment (Debye)
         X       1.3941      Y      -0.3231      Z      -0.3955
       Tot       1.4847
    Quadrupole Moments (Debye-Ang)
        XX     -36.0930     XY       0.0852     YY     -39.1205
        XZ      -2.5816     YZ       1.8510     ZZ     -46.0987

 Total job time:  194.56s(wall), 183.13s(cpu)
        *  Thank you very much for using Q-Chem.  Have a nice day.  *
