 Q-Chem 5.0, Q-Chem, Inc., Pleasanton, CA (2017)
 Q-Chem 5.0.2 for Intel X86 EM64T Linux

User input:
--------------------------------------------------------------
$molecule
0 2
C        1.2588893236    0.2987521232   -0.1438413932
C        0.4675911316   -0.9415347481    0.3963546351
C       -0.9042701909   -1.0557482597    0.2343207173
C       -1.6326364192    0.1697293140    0.1497646859
C       -0.8428956760    1.2358681399    0.4908480791
N        0.4733021937    0.9770220997    0.8486565093
H        2.3015498833    0.2049329398    0.1989111892
H        1.0814028675   -1.7053263335    0.8625903169
H       -1.3886390408   -2.0244871240    0.3144321237
H       -2.6825167219    0.2485918484   -0.1031729573
H       -1.1732650379    2.2698753936    0.5504002921
C        1.2368455588    0.5646945651   -1.5677083260
H        1.7878986105   -0.2091073585   -2.1230271194
$end

$rem
method                b3lyp
basis                 6-31+g(d,p)
unrestricted          true
symmetry              off
sym_ignore            true
incdft                false
incfock               0
scf_convergence       8
thresh                14
jobtype               sp
scf_guess             core
scf_guess_mix         5
scf_algorithm         diis
max_scf_cycles        100
$end

--------------------------------------------------------------

             Standard Nuclear Orientation (Angstroms)
    I     Atom           X                Y                Z
 ----------------------------------------------------------------
    1      C       1.2588893236     0.2987521232    -0.1438413932
    2      C       0.4675911316    -0.9415347481     0.3963546351
    3      C      -0.9042701909    -1.0557482597     0.2343207173
    4      C      -1.6326364192     0.1697293140     0.1497646859
    5      C      -0.8428956760     1.2358681399     0.4908480791
    6      N       0.4733021937     0.9770220997     0.8486565093
    7      H       2.3015498833     0.2049329398     0.1989111892
    8      H       1.0814028675    -1.7053263335     0.8625903169
    9      H      -1.3886390408    -2.0244871240     0.3144321237
   10      H      -2.6825167219     0.2485918484    -0.1031729573
   11      H      -1.1732650379     2.2698753936     0.5504002921
   12      C       1.2368455588     0.5646945651    -1.5677083260
   13      H       1.7878986105    -0.2091073585    -2.1230271194
 ----------------------------------------------------------------

   26    -286.7508321472      4.16E-09 Convergence criterion met
 Total energy in the final basis set = -286.75083215

                    Orbital Energies (a.u.)
 --------------------------------------------------------------

 Alpha MOs
 -- Occupied --
-14.375 -10.260 -10.240 -10.234 -10.231 -10.217 -10.196  -0.971
 -0.806  -0.789  -0.708  -0.616  -0.607  -0.543  -0.496  -0.477
 -0.447  -0.437  -0.417  -0.392  -0.363  -0.313  -0.257  -0.237
 -0.211

 Beta MOs
 -- Occupied --
-14.364 -10.259 -10.242 -10.231 -10.230 -10.212 -10.197  -0.955
 -0.799  -0.779  -0.703  -0.611  -0.599  -0.534  -0.491  -0.469
 -0.443  -0.433  -0.409  -0.386  -0.350  -0.291  -0.252  -0.224

          Ground-State Mulliken Net Atomic Charges

     Atom                 Charge (a.u.)    Spin (a.u.)
  --------------------------------------------------------
      1 C                     0.117438       0.042967
      2 C                    -0.130428      -0.227630
      3 C                    -0.181756       0.396474
      4 C                    -0.034115      -0.090277
      5 C                    -0.225327       0.205267
      6 N                    -0.096344       0.476792
      7 H                     0.161089       0.035811
      8 H                     0.154668       0.024360
      9 H                     0.140931      -0.019801
     10 H                     0.129723       0.003627
     11 H                     0.150026       0.007926
     12 C                    -0.305923       0.144695
     13 H                     0.120018      -0.000211
  --------------------------------------------------------
  Sum of atomic charges =     0.000000

                    Cartesian Multipole Moments
 -----------------------------------------------------------------
    Charge (ESU x 10^10)
                -0.0000
    Dipole Moment (Debye)
         X       0.2102      Y      -1.8289      Z       0.0681
       Tot       1.8422
    Quadrupole Moments (Debye-Ang)
        XX     -36.3862     XY      -2.7090     YY     -40.5676
        XZ      -0.3460     YZ       1.0517     ZZ     -48.7581

 Total job time:  41.56s(wall), 131.34s(cpu)
        *  Thank you very much for using Q-Chem.  Have a nice day.  *
