 Q-Chem 5.0, Q-Chem, Inc., Pleasanton, CA (2017)
 Q-Chem 5.0.2 for Intel X86 EM64T Linux

User input:
--------------------------------------------------------------
$molecule
0 2
C        1.3127821609   -0.0975170434    0.0429889822
C        0.4495302049   -1.2278573684    0.4504356029
C       -0.8931772870   -1.1032169608    0.4863742998
C       -1.5384400085    0.1829397450    0.2617716063
C       -0.8213794854    1.2682334863   -0.0840785854
N        0.5726430580    1.2083824747   -0.3339975311
H        2.2245575760    0.0623983828    0.6240245080
H        0.9373115305   -2.1508125059    0.7561629190
H       -1.5108367987   -1.9468426359    0.7828363665
H       -2.5987864045    0.2871563109    0.4740187789
H       -1.2423038934    2.2696237481   -0.1135147157
C        1.1871834179    0.4348999364   -1.3192550327
H        1.9209159297    0.8126124300   -2.0277671992
****
C        1.5597482980    0.3372353848   -0.5949813396
C        0.0169253052   -1.1649549335    0.6136854915
C       -1.3107036761   -1.1502841174    0.9593962750
C       -1.8659954740    0.0692270734    0.4606039029
C       -0.8587737674    0.7556738131   -0.1711392512
N        0.2981925637    0.0010668774   -0.0815306510
H        2.3168199182   -0.4251200649   -0.3924338334
H        0.7943434098   -1.8944130902    0.7918032295
H       -1.8311685702   -1.9245098279    1.5066740380
H       -2.8908705300    0.4012685040    0.5587950075
H       -0.8457121513    1.7085769372   -0.6786632748
C        1.8667197032    1.4349525124   -1.2571515203
H        2.7504749709    1.8512809318   -1.7150580742
$end

$rem
method                b3lyp
basis                 6-31g(d)
unrestricted          true
symmetry              off
sym_ignore            true
incdft                false
incfock               0
scf_convergence       8
thresh                14
jobtype               fsm
scf_guess             core
scf_guess_mix         5
scf_algorithm         diis_gdm
max_scf_cycles        300
fsm_nnode             21
fsm_ngrad             6
fsm_mode              2
fsm_opt_mode          2
$end

--------------------------------------------------------------

   30    -286.8405126521      9.27E-09 Convergence criterion met
 Total energy in the final basis set = -286.84051265
   30    -286.8724112964      7.93E-09 Convergence criterion met
 Total energy in the final basis set = -286.87241130
   31    -286.8366562628      9.16E-09 Convergence criterion met
 Total energy in the final basis set = -286.83665626
   31    -286.8365591106      7.23E-09 Convergence criterion met
 Total energy in the final basis set = -286.83655911
   32    -286.8383461835      8.19E-09 Convergence criterion met
 Total energy in the final basis set = -286.83834618
   31    -286.8683746086      5.42E-09 Convergence criterion met
 Total energy in the final basis set = -286.86837461
   34    -286.8697042398      8.00E-09 Convergence criterion met
 Total energy in the final basis set = -286.86970424
   32    -286.8680039022      6.39E-09 Convergence criterion met
 Total energy in the final basis set = -286.63017760
   51    -286.6282266778      1.86E-09 Convergence criterion met
 Total energy in the final basis set = -286.62822668
   48    -286.6301928062      9.55E-09 Convergence criterion met
 Total energy in the final basis set = -286.63019281
   48    -286.6282451222      9.57E-09 Convergence criterion met
 Total energy in the final basis set = -286.62824512
   49    -286.6302435455      2.02E-09 Convergence criterion met
 Total energy in the final basis set = -286.63024355
   51    -286.6282074080      4.73E-09 Convergence criterion met
 Total energy in the final basis set = -286.62820741
   47    -286.6303407092      7.55E-09 Convergence criterion met
 Total energy in the final basis set = -286.63034071
   49    -286.6281240926      9.00E-09 Convergence criterion met
 Total energy in the final basis set = -286.62812409

                    Orbital Energies (a.u.)
 --------------------------------------------------------------

 Alpha MOs
 -- Occupied --
-14.365 -10.243 -10.236 -10.224 -10.206 -10.205 -10.191  -0.927
 -0.803  -0.741  -0.685  -0.594  -0.582  -0.518  -0.487  -0.475
 -0.430  -0.402  -0.400  -0.367  -0.337  -0.272  -0.243  -0.224
 -0.174

 Beta MOs
 -- Occupied --
-14.372 -10.249 -10.227 -10.225 -10.207 -10.190 -10.184  -0.934
 -0.800  -0.740  -0.670  -0.582  -0.575  -0.516  -0.483  -0.468
 -0.428  -0.402  -0.400  -0.374  -0.337  -0.275  -0.228  -0.187

          Ground-State Mulliken Net Atomic Charges

     Atom                 Charge (a.u.)    Spin (a.u.)
  --------------------------------------------------------
      1 C                    -0.022118      -0.421396
      2 C                    -0.163106       0.496840
      3 C                    -0.095544      -0.176634
      4 C                    -0.128247       0.054388
      5 C                     0.021565      -0.071543
      6 N                    -0.346153      -0.409594
      7 H                     0.179197       0.048602
      8 H                     0.156474      -0.007656
      9 H                     0.152856       0.031978
     10 H                     0.140227      -0.002883
     11 H                     0.164428      -0.013557
     12 C                    -0.213722       1.467308
     13 H                     0.154143       0.004147
  --------------------------------------------------------
  Sum of atomic charges =    -0.000000

                    Cartesian Multipole Moments
 -----------------------------------------------------------------
    Charge (ESU x 10^10)
                -0.0000
    Dipole Moment (Debye)
         X      -0.0818      Y      -0.8111      Z       0.4301
       Tot       0.9217
    Quadrupole Moments (Debye-Ang)
        XX     -34.7207     XY      -0.9965     YY     -38.4288
        XZ      -1.4700     YZ      -3.3808     ZZ     -44.3184

             Standard Nuclear Orientation (Angstroms)
    I     Atom           X                Y                Z
 ----------------------------------------------------------------
    1      C       1.4662243113    -0.0214065118    -0.4846542717
    2      C       0.2148397207    -1.1572773826     0.5134859634
    3      C      -1.1387178190    -1.1286635827     0.7252344848
    4      C      -1.7824319724     0.0882527207     0.3356063768
    5      C      -0.8523968556     1.0113060121    -0.0697928592
    6      N       0.4613343870     0.7428897129     0.3280773883
    7      H       2.3516862159    -0.2945626800     0.1171713129
    8      H       0.8646799727    -1.9955811477     0.7945561064
    9      H      -1.6756312825    -1.9505769172     1.2134434629
   10      H      -2.8490714735     0.2873858775     0.4495750109
   11      H      -1.0833506095     2.0095434078    -0.4294360540
   12      C       1.5804865477     0.9717189357    -1.4650934200
   13      H       2.4256053396     1.4702341554    -1.9196447486
 ----------------------------------------------------------------

 Total job time:  3432.88s(wall), 9776.03s(cpu)
        *  Thank you very much for using Q-Chem.  Have a nice day.  *
