 Q-Chem 5.0, Q-Chem, Inc., Pleasanton, CA (2017)
 Q-Chem 5.0.2 for Intel X86 EM64T Linux

User input:
--------------------------------------------------------------
$molecule
0 2
C        1.6133427618    0.5230156611   -0.2910517094
C        0.0867677226   -1.0392738402    0.7458051823
C       -1.2724949948   -1.1916925341    0.6508852645
C       -1.8233523160    0.0881502932    0.3105264242
C       -0.7747654796    0.9644660393    0.1829016520
N        0.4090474632    0.2835555737    0.4543811125
H        2.5474047227    0.4759545876    0.2725917943
H        0.8760870219   -1.7539167692    0.9290462876
H       -1.8106405248   -2.1207413789    0.7751184692
H       -2.8684051348    0.3287334954    0.1751539892
H       -0.7531318180    2.0220972104   -0.0382554232
C        1.5586421990    0.6785753544   -1.5974754284
H        2.1947548591    0.7743389089   -2.4610988644
$end

$rem
method                b3lyp
basis                 6-31+g(d,p)
unrestricted          true
symmetry              off
sym_ignore            true
incdft                false
incfock               0
scf_convergence       8
thresh                14
jobtype               opt
scf_guess             read
scf_algorithm         diis
max_scf_cycles        100
geom_opt_max_cycles   300
$end

--------------------------------------------------------------

   19    -286.8800576096      6.37E-09 Convergence criterion met
 Total energy in the final basis set = -286.88005761
   15    -286.8847153155      4.08E-09 Convergence criterion met
 Total energy in the final basis set = -286.88471532
   15    -286.8881217237      4.00E-09 Convergence criterion met
 Total energy in the final basis set = -286.88812172
   15    -286.8907839638      3.20E-09 Convergence criterion met
 Total energy in the final basis set = -286.89078396
   15    -286.8929291288      3.03E-09 Convergence criterion met
 Total energy in the final basis set = -286.89292913
   15    -286.8945921796      2.79E-09 Convergence criterion met
 Total energy in the final basis set = -286.89459218
   14    -286.8957844942      9.98E-09 Convergence criterion met
 Total energy in the final basis set = -286.89578449
   14    -286.8965590226      9.27E-09 Convergence criterion met
 Total energy in the final basis set = -286.89655902
   14    -286.8969857215      8.84E-09 Convergence criterion met
 Total energy in the final basis set = -286.89698572
   14    -286.8971347282      8.28E-09 Convergence criterion met
 Total energy in the final basis set = -286.89713473
   13    -286.8971607453      1.73E-09 Convergence criterion met
 Total energy in the final basis set = -286.89716075
   12    -286.8971717971      4.27E-09 Convergence criterion met
 Total energy in the final basis set = -286.89717180
   11    -286.8971762266      5.15E-09 Convergence criterion met
 Total energy in the final basis set = -286.89717623

             Standard Nuclear Orientation (Angstroms)
    I     Atom           X                Y                Z
 ----------------------------------------------------------------
    1      C       1.5672346642     0.3284721833    -0.5712196302
    2      C       0.0282475994    -1.1045596236     0.7210983871
    3      C      -1.3112460397    -1.0973943659     1.0296786074
    4      C      -1.8828656921     0.0597439152     0.4123853027
    5      C      -0.8735464603     0.7187406810    -0.2502977990
    6      N       0.2992150923     0.0072648222    -0.0631892532
    7      H       2.3379407588    -0.3920135902    -0.2856895682
    8      H       0.8164849270    -1.7945108307     0.9846553590
    9      H      -1.8266366657    -1.8349874503     1.6285635616
   10      H      -2.9176613840     0.3702663129     0.4534609891
   11      H      -0.8755045726     1.6240107469    -0.8379371300
   12      C       1.8701023261     1.3712886880    -1.3212611092
   13      H       2.7514919288     1.7769411129    -1.7917189667
 ----------------------------------------------------------------

   11    -286.8971772025      6.81E-09 Convergence criterion met
 Total energy in the final basis set = -286.89717720
 Final energy is   -286.897177202508
 **  OPTIMIZATION CONVERGED  **

                    Orbital Energies (a.u.)
 --------------------------------------------------------------

 Alpha MOs
 -- Occupied --
-14.405 -10.254 -10.227 -10.218 -10.214 -10.184 -10.183  -1.001
 -0.829  -0.749  -0.732  -0.629  -0.585  -0.554  -0.523  -0.485
 -0.439  -0.436  -0.427  -0.396  -0.385  -0.316  -0.265  -0.237
 -0.224

 Beta MOs
 -- Occupied --
-14.404 -10.256 -10.218 -10.214 -10.212 -10.184 -10.183  -1.000
 -0.824  -0.737  -0.730  -0.617  -0.584  -0.553  -0.510  -0.476
 -0.436  -0.436  -0.425  -0.395  -0.385  -0.313  -0.229  -0.224

          Ground-State Mulliken Net Atomic Charges

     Atom                 Charge (a.u.)    Spin (a.u.)
  --------------------------------------------------------
      1 C                     0.037878      -0.356129
      2 C                    -0.193579      -0.016061
      3 C                    -0.087766      -0.016897
      4 C                    -0.058313      -0.018136
      5 C                    -0.268514       0.016853
      6 N                     0.025815       0.020737
      7 H                     0.142895       0.068392
      8 H                     0.132408       0.000058
      9 H                     0.125991       0.000995
     10 H                     0.125660       0.000993
     11 H                     0.146134      -0.001103
     12 C                    -0.288986       1.301230
     13 H                     0.160377      -0.000931
  --------------------------------------------------------
  Sum of atomic charges =     0.000000

                    Cartesian Multipole Moments
 -----------------------------------------------------------------
    Charge (ESU x 10^10)
                -0.0000
    Dipole Moment (Debye)
         X       1.4509      Y      -0.2552      Z      -0.1735
       Tot       1.4834
    Quadrupole Moments (Debye-Ang)
        XX     -35.8769     XY      -1.0990     YY     -41.1201
        XZ      -1.9117     YZ      -3.6488     ZZ     -44.3240

 Total job time:  370.25s(wall), 1189.30s(cpu)
        *  Thank you very much for using Q-Chem.  Have a nice day.  *
