 Q-Chem 5.0, Q-Chem, Inc., Pleasanton, CA (2017)
 Q-Chem 5.0.2 for Intel X86 EM64T Linux

User input:
--------------------------------------------------------------
$molecule
0 2
C        1.5601380436    0.3371451380   -0.5944839082
C        0.0164753850   -1.1657143194    0.6125679642
C       -1.3105454223   -1.1496573351    0.9605560751
C       -1.8657031540    0.0697428026    0.4612278542
C       -0.8590346408    0.7542662969   -0.1735766864
N        0.2981486448    0.0001995742   -0.0825709653
H        2.3172238345   -0.4250597684   -0.3916015609
H        0.7937043972   -1.8955951916    0.7895352642
H       -1.8310894102   -1.9234706538    1.5083370588
H       -2.8901182288    0.4027196057    0.5611058299
H       -0.8462267545    1.7066192793   -0.6820617315
C        1.8669135885    1.4356628466   -1.2555278794
H        2.7501137170    1.8531417250   -1.7135073147
$end

$rem
method                b3lyp
basis                 6-31g(d)
unrestricted          true
symmetry              off
sym_ignore            true
incdft                false
incfock               0
scf_convergence       8
thresh                14
jobtype               opt
scf_guess             core
scf_guess_mix         5
scf_algorithm         diis
max_scf_cycles        100
geom_opt_max_cycles   300
$end

--------------------------------------------------------------

   22    -286.8724106192      7.07E-09 Convergence criterion met
 Total energy in the final basis set = -286.87241062

             Standard Nuclear Orientation (Angstroms)
    I     Atom           X                Y                Z
 ----------------------------------------------------------------
    1      C       1.5597482980     0.3372353848    -0.5949813396
    2      C       0.0169253052    -1.1649549335     0.6136854915
    3      C      -1.3107036761    -1.1502841174     0.9593962750
    4      C      -1.8659954740     0.0692270734     0.4606039029
    5      C      -0.8587737674     0.7556738131    -0.1711392512
    6      N       0.2981925637     0.0010668774    -0.0815306510
    7      H       2.3168199182    -0.4251200649    -0.3924338334
    8      H       0.7943434098    -1.8944130902     0.7918032295
    9      H      -1.8311685702    -1.9245098279     1.5066740380
   10      H      -2.8908705300     0.4012685040     0.5587950075
   11      H      -0.8457121513     1.7085769372    -0.6786632748
   12      C       1.8667197032     1.4349525124    -1.2571515203
   13      H       2.7504749709     1.8512809318    -1.7150580742
 ----------------------------------------------------------------

   16    -286.8724112408      2.85E-09 Convergence criterion met
 Total energy in the final basis set = -286.87241124
 Final energy is   -286.872411240809
 **  OPTIMIZATION CONVERGED  **

                    Orbital Energies (a.u.)
 --------------------------------------------------------------

 Alpha MOs
 -- Occupied --
-14.392 -10.242 -10.214 -10.205 -10.201 -10.171 -10.170  -0.988
 -0.817  -0.737  -0.720  -0.618  -0.574  -0.544  -0.513  -0.476
 -0.428  -0.423  -0.416  -0.386  -0.374  -0.303  -0.255  -0.224
 -0.210

 Beta MOs
 -- Occupied --
-14.391 -10.243 -10.205 -10.201 -10.198 -10.171 -10.170  -0.987
 -0.812  -0.725  -0.717  -0.605  -0.573  -0.543  -0.500  -0.466
 -0.424  -0.424  -0.414  -0.385  -0.374  -0.301  -0.216  -0.211

          Ground-State Mulliken Net Atomic Charges

     Atom                 Charge (a.u.)    Spin (a.u.)
  --------------------------------------------------------
      1 C                     0.068354      -0.140584
      2 C                     0.027795      -0.002597
      3 C                    -0.193404      -0.005411
      4 C                    -0.186813      -0.008647
      5 C                     0.037615       0.008954
      6 N                    -0.401621       0.019522
      7 H                     0.163166       0.068804
      8 H                     0.144854       0.000097
      9 H                     0.128543       0.001025
     10 H                     0.128903       0.000824
     11 H                     0.154874       0.000548
     12 C                    -0.244587       1.062508
     13 H                     0.172319      -0.005043
  --------------------------------------------------------
  Sum of atomic charges =     0.000000

                    Cartesian Multipole Moments
 -----------------------------------------------------------------
    Charge (ESU x 10^10)
                -0.0000
    Dipole Moment (Debye)
         X       1.4000      Y      -0.2135      Z      -0.2623
       Tot       1.4403
    Quadrupole Moments (Debye-Ang)
        XX     -34.9473     XY      -0.9655     YY     -38.8198
        XZ      -2.1406     YZ      -2.9514     ZZ     -42.7435

 Total job time:  47.42s(wall), 110.64s(cpu)
        *  Thank you very much for using Q-Chem.  Have a nice day.  *
