 Q-Chem 5.0, Q-Chem, Inc., Pleasanton, CA (2017)
 Q-Chem 5.0.2 for Intel X86 EM64T Linux

User input:
--------------------------------------------------------------
$molecule
0 2
C        1.3124298484   -0.0975946439    0.0436157441
C        0.4498855437   -1.2273034426    0.4519224280
C       -0.8926964123   -1.1033291819    0.4848436928
C       -1.5382567658    0.1827420806    0.2616387570
C       -0.8211695858    1.2682934622   -0.0838731046
N        0.5722795659    1.2083535336   -0.3343067327
H        2.2232983203    0.0643887170    0.6254488622
H        0.9378922942   -2.1508412213    0.7558459933
H       -1.5110716912   -1.9466871404    0.7809235959
H       -2.5984363969    0.2871612308    0.4746464774
H       -1.2414452168    2.2700125292   -0.1119807278
C        1.1871675708    0.4342154903   -1.3192912543
H        1.9201229259    0.8105885861   -2.0294337316
$end

$rem
method                b3lyp
basis                 6-31g(d)
unrestricted          true
symmetry              off
sym_ignore            true
incdft                false
incfock               0
scf_convergence       8
thresh                14
jobtype               opt
scf_guess             core
scf_guess_mix         5
scf_algorithm         diis
max_scf_cycles        100
geom_opt_max_cycles   300
$end

--------------------------------------------------------------

   23    -286.8405101567      5.01E-09 Convergence criterion met
 Total energy in the final basis set = -286.84051016
   17    -286.8405124350      4.66E-09 Convergence criterion met
 Total energy in the final basis set = -286.84051244

             Standard Nuclear Orientation (Angstroms)
    I     Atom           X                Y                Z
 ----------------------------------------------------------------
    1      C       1.3127821609    -0.0975170434     0.0429889822
    2      C       0.4495302049    -1.2278573684     0.4504356029
    3      C      -0.8931772870    -1.1032169608     0.4863742998
    4      C      -1.5384400085     0.1829397450     0.2617716063
    5      C      -0.8213794854     1.2682334863    -0.0840785854
    6      N       0.5726430580     1.2083824747    -0.3339975311
    7      H       2.2245575760     0.0623983828     0.6240245080
    8      H       0.9373115305    -2.1508125059     0.7561629190
    9      H      -1.5108367987    -1.9468426359     0.7828363665
   10      H      -2.5987864045     0.2871563109     0.4740187789
   11      H      -1.2423038934     2.2696237481    -0.1135147157
   12      C       1.1871834179     0.4348999364    -1.3192550327
   13      H       1.9209159297     0.8126124300    -2.0277671992
 ----------------------------------------------------------------

   17    -286.8405126521      4.66E-09 Convergence criterion met
 Total energy in the final basis set = -286.84051265
 Final energy is   -286.840512652132
 **  OPTIMIZATION CONVERGED  **

                    Orbital Energies (a.u.)
 --------------------------------------------------------------

 Alpha MOs
 -- Occupied --
-14.358 -10.230 -10.222 -10.220 -10.195 -10.193 -10.189  -0.983
 -0.807  -0.773  -0.662  -0.637  -0.570  -0.520  -0.493  -0.477
 -0.451  -0.424  -0.389  -0.368  -0.354  -0.308  -0.277  -0.223
 -0.188

 Beta MOs
 -- Occupied --
-14.355 -10.230 -10.220 -10.209 -10.195 -10.193 -10.189  -0.974
 -0.805  -0.770  -0.654  -0.636  -0.555  -0.515  -0.487  -0.474
 -0.442  -0.419  -0.384  -0.364  -0.351  -0.297  -0.270  -0.206

          Ground-State Mulliken Net Atomic Charges

     Atom                 Charge (a.u.)    Spin (a.u.)
  --------------------------------------------------------
      1 C                    -0.077027      -0.036818
      2 C                    -0.099307       0.029035
      3 C                    -0.135021      -0.010427
      4 C                    -0.123395       0.014340
      5 C                     0.023306       0.011522
      6 N                    -0.392139       0.120280
      7 H                     0.152394       0.004037
      8 H                     0.137689      -0.001560
      9 H                     0.133306       0.000590
     10 H                     0.133343       0.003113
     11 H                     0.148782      -0.000924
     12 C                    -0.054782       0.860451
     13 H                     0.152852       0.006360
  --------------------------------------------------------
  Sum of atomic charges =    -0.000000

                    Cartesian Multipole Moments
 -----------------------------------------------------------------
    Charge (ESU x 10^10)
                 0.0000
    Dipole Moment (Debye)
         X      -0.0931      Y      -0.6401      Z       0.4621
       Tot       0.7949
    Quadrupole Moments (Debye-Ang)
        XX     -36.1304     XY      -1.3764     YY     -39.5637
        XZ      -1.1384     YZ      -1.9320     ZZ     -42.0236

 Total job time:  64.59s(wall), 169.97s(cpu)
        *  Thank you very much for using Q-Chem.  Have a nice day.  *
