 Q-Chem 5.0, Q-Chem, Inc., Pleasanton, CA (2017)
 Q-Chem 5.0.2 for Intel X86 EM64T Linux

User input:
--------------------------------------------------------------
$molecule
0 2
C        1.2536826845    0.2091140761   -0.1312055995
C        0.4334043103   -0.9904690268    0.4618146580
C       -0.9343261611   -1.0751027621    0.3150455837
C       -1.6306436286    0.1588744695    0.1492426968
C       -0.8238753246    1.2288111844    0.4365433708
N        0.4854759029    0.9772403678    0.8144878109
H        2.2888527114    0.1025273602    0.2240116564
H        1.0349891321   -1.7497053376    0.9525910805
H       -1.4494548886   -2.0227768737    0.4475540971
H       -2.6785481870    0.2461691350   -0.1124552676
H       -1.1483985459    2.2673144702    0.4616689685
C        1.2270958318    0.4597376542   -1.5576902527
H        1.9250026451    0.2215278828   -2.3530800501
$end

$rem
method                b3lyp
basis                 6-31g(d)
unrestricted          true
symmetry              off
sym_ignore            true
incdft                false
incfock               0
scf_convergence       8
thresh                14
jobtype               sp
scf_guess             read
scf_algorithm         diis
max_scf_cycles        100
$end

--------------------------------------------------------------

             Standard Nuclear Orientation (Angstroms)
    I     Atom           X                Y                Z
 ----------------------------------------------------------------
    1      C       1.2536826845     0.2091140761    -0.1312055995
    2      C       0.4334043103    -0.9904690268     0.4618146580
    3      C      -0.9343261611    -1.0751027621     0.3150455837
    4      C      -1.6306436286     0.1588744695     0.1492426968
    5      C      -0.8238753246     1.2288111844     0.4365433708
    6      N       0.4854759029     0.9772403678     0.8144878109
    7      H       2.2888527114     0.1025273602     0.2240116564
    8      H       1.0349891321    -1.7497053376     0.9525910805
    9      H      -1.4494548886    -2.0227768737     0.4475540971
   10      H      -2.6785481870     0.2461691350    -0.1124552676
   11      H      -1.1483985459     2.2673144702     0.4616689685
   12      C       1.2270958318     0.4597376542    -1.5576902527
   13      H       1.9250026451     0.2215278828    -2.3530800501
 ----------------------------------------------------------------

    2    -286.7296163710      2.04E-09 Convergence criterion met
 Total energy in the final basis set = -286.72961637

                    Orbital Energies (a.u.)
 --------------------------------------------------------------

 Alpha MOs
 -- Occupied --
-14.343 -10.247 -10.221 -10.216 -10.214 -10.190 -10.178  -0.934
 -0.783  -0.761  -0.698  -0.603  -0.585  -0.520  -0.496  -0.460
 -0.442  -0.416  -0.393  -0.370  -0.336  -0.277  -0.259  -0.217
 -0.209

 Beta MOs
 -- Occupied --
-14.353 -10.250 -10.217 -10.213 -10.195 -10.194 -10.177  -0.948
 -0.784  -0.764  -0.670  -0.591  -0.586  -0.523  -0.486  -0.454
 -0.442  -0.417  -0.399  -0.373  -0.343  -0.295  -0.221  -0.194

          Ground-State Mulliken Net Atomic Charges

     Atom                 Charge (a.u.)    Spin (a.u.)
  --------------------------------------------------------
      1 C                    -0.041699      -0.150548
      2 C                    -0.172799       0.181704
      3 C                    -0.071169      -0.311953
      4 C                    -0.150329       0.094492
      5 C                     0.019042      -0.192484
      6 N                    -0.356121      -0.495184
      7 H                     0.170351       0.050214
      8 H                     0.156227      -0.025694
      9 H                     0.142266       0.017014
     10 H                     0.128719      -0.003754
     11 H                     0.155707      -0.007320
     12 C                    -0.140571       1.883498
     13 H                     0.160376      -0.039984
  --------------------------------------------------------
  Sum of atomic charges =    -0.000000

                    Cartesian Multipole Moments
 -----------------------------------------------------------------
    Charge (ESU x 10^10)
                 0.0000
    Dipole Moment (Debye)
         X       0.4549      Y      -0.8963      Z      -0.8944
       Tot       1.3454
    Quadrupole Moments (Debye-Ang)
        XX     -35.7088     XY      -1.8717     YY     -38.6790
        XZ      -1.5663     YZ      -1.4829     ZZ     -43.7895

 Total job time:  2.10s(wall), 6.40s(cpu)
        *  Thank you very much for using Q-Chem.  Have a nice day.  *
