 Q-Chem 5.0, Q-Chem, Inc., Pleasanton, CA (2017)
 Q-Chem 5.0.2 for Intel X86 EM64T Linux

User input:
--------------------------------------------------------------
$molecule
0 2
C        1.4662243113   -0.0214065118   -0.4846542717
C        0.2148397207   -1.1572773826    0.5134859634
C       -1.1387178190   -1.1286635827    0.7252344848
C       -1.7824319724    0.0882527207    0.3356063768
C       -0.8523968556    1.0113060121   -0.0697928592
N        0.4613343870    0.7428897129    0.3280773883
H        2.3516862159   -0.2945626800    0.1171713129
H        0.8646799727   -1.9955811477    0.7945561064
H       -1.6756312825   -1.9505769172    1.2134434629
H       -2.8490714735    0.2873858775    0.4495750109
H       -1.0833506095    2.0095434078   -0.4294360540
C        1.5804865477    0.9717189357   -1.4650934200
H        2.4256053396    1.4702341554   -1.9196447486
$end

$rem
method                b3lyp
basis                 6-31g(d)
unrestricted          true
symmetry              off
sym_ignore            true
incdft                false
incfock               0
scf_convergence       8
thresh                14
jobtype               sp
scf_guess             core
scf_guess_mix         5
scf_algorithm         diis_gdm
max_scf_cycles        300
$end

--------------------------------------------------------------

             Standard Nuclear Orientation (Angstroms)
    I     Atom           X                Y                Z
 ----------------------------------------------------------------
    1      C       1.4662243113    -0.0214065118    -0.4846542717
    2      C       0.2148397207    -1.1572773826     0.5134859634
    3      C      -1.1387178190    -1.1286635827     0.7252344848
    4      C      -1.7824319724     0.0882527207     0.3356063768
    5      C      -0.8523968556     1.0113060121    -0.0697928592
    6      N       0.4613343870     0.7428897129     0.3280773883
    7      H       2.3516862159    -0.2945626800     0.1171713129
    8      H       0.8646799727    -1.9955811477     0.7945561064
    9      H      -1.6756312825    -1.9505769172     1.2134434629
   10      H      -2.8490714735     0.2873858775     0.4495750109
   11      H      -1.0833506095     2.0095434078    -0.4294360540
   12      C       1.5804865477     0.9717189357    -1.4650934200
   13      H       2.4256053396     1.4702341554    -1.9196447486
 ----------------------------------------------------------------

   42    -286.6498352914      8.80E-09 Convergence criterion met
 Total energy in the final basis set = -286.64983529

                    Orbital Energies (a.u.)
 --------------------------------------------------------------

 Alpha MOs
 -- Occupied --
-14.363 -10.241 -10.238 -10.223 -10.203 -10.200 -10.190  -0.926
 -0.801  -0.742  -0.688  -0.594  -0.583  -0.520  -0.490  -0.473
 -0.433  -0.403  -0.399  -0.367  -0.339  -0.272  -0.241  -0.224
 -0.184

 Beta MOs
 -- Occupied --
-14.368 -10.244 -10.235 -10.224 -10.204 -10.190 -10.179  -0.931
 -0.798  -0.741  -0.674  -0.583  -0.576  -0.518  -0.485  -0.465
 -0.430  -0.403  -0.399  -0.372  -0.339  -0.274  -0.230  -0.184

          Ground-State Mulliken Net Atomic Charges

     Atom                 Charge (a.u.)    Spin (a.u.)
  --------------------------------------------------------
      1 C                    -0.032279      -0.371512
      2 C                    -0.147883       0.359278
      3 C                    -0.091261      -0.131544
      4 C                    -0.127450       0.027683
      5 C                     0.026600      -0.049447
      6 N                    -0.365733      -0.304847
      7 H                     0.177251       0.048220
      8 H                     0.166419      -0.006780
      9 H                     0.152236       0.023800
     10 H                     0.139593      -0.001257
     11 H                     0.161865      -0.010780
     12 C                    -0.210961       1.411828
     13 H                     0.151603       0.005359
  --------------------------------------------------------
  Sum of atomic charges =    -0.000000

                    Cartesian Multipole Moments
 -----------------------------------------------------------------
    Charge (ESU x 10^10)
                -0.0000
    Dipole Moment (Debye)
         X      -0.1284      Y      -0.9397      Z       0.4855
       Tot       1.0655
    Quadrupole Moments (Debye-Ang)
        XX     -34.7495     XY      -1.1389     YY     -37.9277
        XZ      -1.3151     YZ      -3.4538     ZZ     -44.5463

 Total job time:  29.89s(wall), 103.67s(cpu)
        *  Thank you very much for using Q-Chem.  Have a nice day.  *
