 Q-Chem 5.0, Q-Chem, Inc., Pleasanton, CA (2017)
 Q-Chem 5.0.2 for Intel X86 EM64T Linux

User input:
--------------------------------------------------------------
$molecule
0 2
C        1.4662243113   -0.0214065118   -0.4846542717
C        0.2148397207   -1.1572773826    0.5134859634
C       -1.1387178190   -1.1286635827    0.7252344848
C       -1.7824319724    0.0882527207    0.3356063768
C       -0.8523968556    1.0113060121   -0.0697928592
N        0.4613343870    0.7428897129    0.3280773883
H        2.3516862159   -0.2945626800    0.1171713129
H        0.8646799727   -1.9955811477    0.7945561064
H       -1.6756312825   -1.9505769172    1.2134434629
H       -2.8490714735    0.2873858775    0.4495750109
H       -1.0833506095    2.0095434078   -0.4294360540
C        1.5804865477    0.9717189357   -1.4650934200
H        2.4256053396    1.4702341554   -1.9196447486
$end

$rem
method                b3lyp
basis                 6-31g(d)
unrestricted          true
symmetry              off
sym_ignore            true
incdft                false
incfock               0
scf_convergence       8
thresh                14
jobtype               freq
scf_guess             read
scf_algorithm         diis
max_scf_cycles        100
$end

--------------------------------------------------------------

             Standard Nuclear Orientation (Angstroms)
    I     Atom           X                Y                Z
 ----------------------------------------------------------------
    1      C       1.4662243113    -0.0214065118    -0.4846542717
    2      C       0.2148397207    -1.1572773826     0.5134859634
    3      C      -1.1387178190    -1.1286635827     0.7252344848
    4      C      -1.7824319724     0.0882527207     0.3356063768
    5      C      -0.8523968556     1.0113060121    -0.0697928592
    6      N       0.4613343870     0.7428897129     0.3280773883
    7      H       2.3516862159    -0.2945626800     0.1171713129
    8      H       0.8646799727    -1.9955811477     0.7945561064
    9      H      -1.6756312825    -1.9505769172     1.2134434629
   10      H      -2.8490714735     0.2873858775     0.4495750109
   11      H      -1.0833506095     2.0095434078    -0.4294360540
   12      C       1.5804865477     0.9717189357    -1.4650934200
   13      H       2.4256053396     1.4702341554    -1.9196447486
 ----------------------------------------------------------------

    2    -286.6498352916      3.81E-11 Convergence criterion met
 Total energy in the final basis set = -286.64983529

                    Orbital Energies (a.u.)
 --------------------------------------------------------------

 Alpha MOs
 -- Occupied --
-14.363 -10.241 -10.238 -10.223 -10.203 -10.200 -10.190  -0.926
 -0.801  -0.742  -0.688  -0.594  -0.583  -0.520  -0.490  -0.473
 -0.433  -0.403  -0.399  -0.367  -0.339  -0.272  -0.241  -0.224
 -0.184

 Beta MOs
 -- Occupied --
-14.368 -10.244 -10.235 -10.224 -10.204 -10.190 -10.179  -0.931
 -0.798  -0.741  -0.674  -0.583  -0.576  -0.518  -0.485  -0.465
 -0.430  -0.403  -0.399  -0.372  -0.339  -0.274  -0.230  -0.184

          Ground-State Mulliken Net Atomic Charges

     Atom                 Charge (a.u.)    Spin (a.u.)
  --------------------------------------------------------
      1 C                    -0.032279      -0.371512
      2 C                    -0.147883       0.359278
      3 C                    -0.091261      -0.131544
      4 C                    -0.127450       0.027683
      5 C                     0.026600      -0.049447
      6 N                    -0.365733      -0.304847
      7 H                     0.177251       0.048220
      8 H                     0.166419      -0.006780
      9 H                     0.152236       0.023800
     10 H                     0.139593      -0.001257
     11 H                     0.161865      -0.010780
     12 C                    -0.210961       1.411828
     13 H                     0.151603       0.005359
  --------------------------------------------------------
  Sum of atomic charges =    -0.000000

                    Cartesian Multipole Moments
 -----------------------------------------------------------------
    Charge (ESU x 10^10)
                -0.0000
    Dipole Moment (Debye)
         X      -0.1284      Y      -0.9397      Z       0.4855
       Tot       1.0655
    Quadrupole Moments (Debye-Ang)
        XX     -34.7495     XY      -1.1389     YY     -37.9277
        XZ      -1.3151     YZ      -3.4538     ZZ     -44.5463

 Frequency:     -1048.46                -407.45                 154.99
 Force Cnst:      4.1225                 0.5010                 0.0588
 Red. Mass:       6.3651                 5.1217                 4.1562
 IR Intens:       84.486                  2.325                  1.616
 Frequency:       242.36                 343.24                 385.72
 Force Cnst:      0.0776                 0.1392                 0.2718
 Red. Mass:       2.2416                 2.0054                 3.1009
 IR Intens:        8.693                 83.860                  2.403
 Frequency:       477.47                 598.52                 615.01
 Force Cnst:      0.4247                 0.4769                 0.8440
 Red. Mass:       3.1618                 2.2595                 3.7873
 IR Intens:        2.074                 32.519                  2.198
 Frequency:       681.51                 738.82                 764.40
 Force Cnst:      0.3994                 0.7460                 0.5531
 Red. Mass:       1.4594                 2.3195                 1.6067
 IR Intens:       31.019                  7.013                154.003
 Frequency:       800.60                 817.41                 846.40
 Force Cnst:      0.9023                 0.7372                 0.7180
 Red. Mass:       2.3893                 1.8727                 1.7010
 IR Intens:       13.718                  7.815                 14.211
 Frequency:       888.31                 908.39                1040.81
 Force Cnst:      0.6698                 0.6702                 2.2218
 Red. Mass:       1.4407                 1.3786                 3.4810
 IR Intens:        3.468                  5.053                  9.918
 Frequency:      1059.61                1122.48                1161.49
 Force Cnst:      1.2281                 0.8907                 1.0972
 Red. Mass:       1.8565                 1.1999                 1.3804
 IR Intens:        4.875                  2.167                  8.912
 Frequency:      1167.81                1235.68                1286.59
 Force Cnst:      1.4916                 1.1460                 1.4606
 Red. Mass:       1.8564                 1.2739                 1.4976
 IR Intens:        6.226                 32.130                 21.021
 Frequency:      1390.57                1447.17                1561.86
 Force Cnst:      2.6898                 4.0728                 5.8400
 Red. Mass:       2.3609                 3.3007                 4.0633
 IR Intens:        0.418                  3.934                  4.445
 Frequency:      3007.11                3100.70                3122.77
 Force Cnst:      5.7815                 6.1416                 6.3185
 Red. Mass:       1.0852                 1.0842                 1.0997
 IR Intens:       12.865                  4.600                  3.511
 Frequency:      3171.33                3214.03                3245.98
 Force Cnst:      6.4732                 6.6630                 6.7683
 Red. Mass:       1.0924                 1.0948                 1.0903
 IR Intens:        7.450                  6.545                 11.873

 STANDARD THERMODYNAMIC QUANTITIES AT   298.15 K  AND     1.00 ATM

   This Molecule has  2 Imaginary Frequencies
   Zero point vibrational energy:       58.039 kcal/mol

   Atom    1 Element C  Has Mass   12.00000
   Atom    2 Element C  Has Mass   12.00000
   Atom    3 Element C  Has Mass   12.00000
   Atom    4 Element C  Has Mass   12.00000
   Atom    5 Element C  Has Mass   12.00000
   Atom    6 Element N  Has Mass   14.00307
   Atom    7 Element H  Has Mass    1.00783
   Atom    8 Element H  Has Mass    1.00783
   Atom    9 Element H  Has Mass    1.00783
   Atom   10 Element H  Has Mass    1.00783
   Atom   11 Element H  Has Mass    1.00783
   Atom   12 Element C  Has Mass   12.00000
   Atom   13 Element H  Has Mass    1.00783
   Molecular Mass:    92.050050 amu
   Principal axes and moments of inertia in amu*Bohr^2:
                             1           2           3
    Eigenvalues --      302.51017   700.20563   924.75560
          X               0.83418    -0.47176     0.28564
          Y               0.34148     0.84854     0.40419
          Z              -0.43306    -0.23963     0.86893
   Rotational Symmetry Number is   1
   The Molecule is an Asymmetric Top
   Translational Enthalpy:        0.889 kcal/mol
   Rotational Enthalpy:           0.889 kcal/mol
   Vibrational Enthalpy:         60.034 kcal/mol
   gas constant (RT):             0.592 kcal/mol
   Translational Entropy:        39.471  cal/mol.K
   Rotational Entropy:           26.774  cal/mol.K
   Vibrational Entropy:          10.300  cal/mol.K

   Total Enthalpy:               62.404 kcal/mol
   Total Entropy:                76.544  cal/mol.K

 Total job time:  259.17s(wall), 254.22s(cpu)
        *  Thank you very much for using Q-Chem.  Have a nice day.  *
