 Q-Chem 5.0, Q-Chem, Inc., Pleasanton, CA (2017)
 Q-Chem 5.0.2 for Intel X86 EM64T Linux

User input:
--------------------------------------------------------------
$molecule
0 2
C        1.2536826845    0.2091140761   -0.1312055995
C        0.4334043103   -0.9904690268    0.4618146580
C       -0.9343261611   -1.0751027621    0.3150455837
C       -1.6306436286    0.1588744695    0.1492426968
C       -0.8238753246    1.2288111844    0.4365433708
N        0.4854759029    0.9772403678    0.8144878109
H        2.2888527114    0.1025273602    0.2240116564
H        1.0349891321   -1.7497053376    0.9525910805
H       -1.4494548886   -2.0227768737    0.4475540971
H       -2.6785481870    0.2461691350   -0.1124552676
H       -1.1483985459    2.2673144702    0.4616689685
C        1.2270958318    0.4597376542   -1.5576902527
H        1.9250026451    0.2215278828   -2.3530800501
$end

$rem
method                b3lyp
basis                 6-31+g(d,p)
unrestricted          true
symmetry              off
sym_ignore            true
incdft                false
incfock               0
scf_convergence       8
thresh                14
jobtype               freq
scf_guess             read
scf_algorithm         diis
max_scf_cycles        100
$end

--------------------------------------------------------------

             Standard Nuclear Orientation (Angstroms)
    I     Atom           X                Y                Z
 ----------------------------------------------------------------
    1      C       1.2536826845     0.2091140761    -0.1312055995
    2      C       0.4334043103    -0.9904690268     0.4618146580
    3      C      -0.9343261611    -1.0751027621     0.3150455837
    4      C      -1.6306436286     0.1588744695     0.1492426968
    5      C      -0.8238753246     1.2288111844     0.4365433708
    6      N       0.4854759029     0.9772403678     0.8144878109
    7      H       2.2888527114     0.1025273602     0.2240116564
    8      H       1.0349891321    -1.7497053376     0.9525910805
    9      H      -1.4494548886    -2.0227768737     0.4475540971
   10      H      -2.6785481870     0.2461691350    -0.1124552676
   11      H      -1.1483985459     2.2673144702     0.4616689685
   12      C       1.2270958318     0.4597376542    -1.5576902527
   13      H       1.9250026451     0.2215278828    -2.3530800501
 ----------------------------------------------------------------

    2    -286.7420965273      1.33E-09 Convergence criterion met
 Total energy in the final basis set = -286.74209653

                    Orbital Energies (a.u.)
 --------------------------------------------------------------

 Alpha MOs
 -- Occupied --
-14.372 -10.262 -10.231 -10.229 -10.226 -10.212 -10.191  -0.966
 -0.801  -0.783  -0.698  -0.612  -0.604  -0.539  -0.504  -0.472
 -0.458  -0.432  -0.414  -0.388  -0.360  -0.313  -0.244  -0.237
 -0.208

 Beta MOs
 -- Occupied --
-14.362 -10.260 -10.233 -10.226 -10.224 -10.208 -10.192  -0.949
 -0.794  -0.774  -0.695  -0.607  -0.597  -0.528  -0.500  -0.464
 -0.453  -0.427  -0.405  -0.382  -0.348  -0.290  -0.232  -0.218

          Ground-State Mulliken Net Atomic Charges

     Atom                 Charge (a.u.)    Spin (a.u.)
  --------------------------------------------------------
      1 C                     0.088199       0.057601
      2 C                    -0.167054      -0.193447
      3 C                    -0.173327       0.361534
      4 C                    -0.030129      -0.059928
      5 C                    -0.259103       0.177176
      6 N                    -0.110037       0.496580
      7 H                     0.150682       0.050192
      8 H                     0.150873       0.024024
      9 H                     0.139715      -0.018310
     10 H                     0.127173       0.002984
     11 H                     0.147098       0.010980
     12 C                    -0.209609       0.066466
     13 H                     0.145519       0.024149
  --------------------------------------------------------
  Sum of atomic charges =     0.000000

                    Cartesian Multipole Moments
 -----------------------------------------------------------------
    Charge (ESU x 10^10)
                 0.0000
    Dipole Moment (Debye)
         X       0.4420      Y      -1.3114      Z      -0.5469
       Tot       1.4881
    Quadrupole Moments (Debye-Ang)
        XX     -36.4491     XY      -1.8136     YY     -40.2123
        XZ      -1.7121     YZ      -0.8364     ZZ     -46.4884

 Frequency:      -597.58                -242.98                -129.47
 Force Cnst:      0.7296                 0.0460                 0.0186
 Red. Mass:       3.4678                 1.3230                 1.8786
 IR Intens:       12.553                 42.114                146.110
 Frequency:       214.48                 281.79                 456.81
 Force Cnst:      0.0773                 0.1029                 0.3569
 Red. Mass:       2.8504                 2.1996                 2.9030
 IR Intens:       16.607                 59.934                 26.843
 Frequency:       491.32                 594.85                 636.60
 Force Cnst:      0.5084                 0.4440                 0.8375
 Red. Mass:       3.5747                 2.1298                 3.5077
 IR Intens:        3.117                 40.878                  3.054
 Frequency:       698.05                 749.21                 776.49
 Force Cnst:      0.6585                 0.7397                 0.7419
 Red. Mass:       2.2935                 2.2367                 2.0885
 IR Intens:        8.383                 36.610                  6.062
 Frequency:       831.58                 861.58                 890.54
 Force Cnst:      0.9271                 1.1557                 0.6753
 Red. Mass:       2.2756                 2.6424                 1.4451
 IR Intens:        0.843                 21.601                  1.783
 Frequency:       923.36                1004.58                1054.76
 Force Cnst:      1.8946                 1.7753                 1.2595
 Red. Mass:       3.7715                 2.9858                 1.9215
 IR Intens:        3.523                 15.832                  3.432
 Frequency:      1082.73                1136.56                1148.28
 Force Cnst:      1.2191                 0.9515                 0.8863
 Red. Mass:       1.7651                 1.2502                 1.1408
 IR Intens:       11.164                  6.120                  1.300
 Frequency:      1186.10                1287.29                1332.32
 Force Cnst:      1.7938                 1.2088                 1.5029
 Red. Mass:       2.1641                 1.2381                 1.4370
 IR Intens:       30.849                  2.321                  9.644
 Frequency:      1398.29                1430.61                1545.14
 Force Cnst:      3.2070                 3.3713                 5.6654
 Red. Mass:       2.7839                 2.7958                 4.0276
 IR Intens:        2.818                 12.891                 19.629
 Frequency:      3009.04                3177.45                3185.87
 Force Cnst:      5.7627                 6.4716                 6.4921
 Red. Mass:       1.0802                 1.0879                 1.0856
 IR Intens:       19.301                  1.473                  2.030
 Frequency:      3203.47                3219.47                3231.30
 Force Cnst:      6.6270                 6.6661                 6.7529
 Red. Mass:       1.0960                 1.0916                 1.0977
 IR Intens:        5.650                  9.055                  8.057

 STANDARD THERMODYNAMIC QUANTITIES AT   298.15 K  AND     1.00 ATM

   This Molecule has  3 Imaginary Frequencies
   Zero point vibrational energy:       58.670 kcal/mol

   Atom    1 Element C  Has Mass   12.00000
   Atom    2 Element C  Has Mass   12.00000
   Atom    3 Element C  Has Mass   12.00000
   Atom    4 Element C  Has Mass   12.00000
   Atom    5 Element C  Has Mass   12.00000
   Atom    6 Element N  Has Mass   14.00307
   Atom    7 Element H  Has Mass    1.00783
   Atom    8 Element H  Has Mass    1.00783
   Atom    9 Element H  Has Mass    1.00783
   Atom   10 Element H  Has Mass    1.00783
   Atom   11 Element H  Has Mass    1.00783
   Atom   12 Element C  Has Mass   12.00000
   Atom   13 Element H  Has Mass    1.00783
   Molecular Mass:    92.050050 amu
   Principal axes and moments of inertia in amu*Bohr^2:
                             1           2           3
    Eigenvalues --      386.81465   593.06705   708.45782
          X               0.91387    -0.13003     0.38462
          Y               0.13034     0.99114     0.02539
          Z              -0.38451     0.02693     0.92273
   Rotational Symmetry Number is   1
   The Molecule is an Asymmetric Top
   Translational Enthalpy:        0.889 kcal/mol
   Rotational Enthalpy:           0.889 kcal/mol
   Vibrational Enthalpy:         60.237 kcal/mol
   gas constant (RT):             0.592 kcal/mol
   Translational Entropy:        39.471  cal/mol.K
   Rotational Entropy:           26.588  cal/mol.K
   Vibrational Entropy:           7.718  cal/mol.K

   Total Enthalpy:               62.606 kcal/mol
   Total Entropy:                73.777  cal/mol.K

 Total job time:  565.49s(wall), 558.37s(cpu)
        *  Thank you very much for using Q-Chem.  Have a nice day.  *
