 Q-Chem 5.0, Q-Chem, Inc., Pleasanton, CA (2017)
 Q-Chem 5.0.2 for Intel X86 EM64T Linux

User input:
--------------------------------------------------------------
$molecule
0 2
C        1.2588893236    0.2987521232   -0.1438413932
C        0.4675911316   -0.9415347481    0.3963546351
C       -0.9042701909   -1.0557482597    0.2343207173
C       -1.6326364192    0.1697293140    0.1497646859
C       -0.8428956760    1.2358681399    0.4908480791
N        0.4733021937    0.9770220997    0.8486565093
H        2.3015498833    0.2049329398    0.1989111892
H        1.0814028675   -1.7053263335    0.8625903169
H       -1.3886390408   -2.0244871240    0.3144321237
H       -2.6825167219    0.2485918484   -0.1031729573
H       -1.1732650379    2.2698753936    0.5504002921
C        1.2368455588    0.5646945651   -1.5677083260
H        1.7878986105   -0.2091073585   -2.1230271194
$end

$rem
method                b3lyp
basis                 6-31+g(d,p)
unrestricted          true
symmetry              off
sym_ignore            true
incdft                false
incfock               0
scf_convergence       8
thresh                14
jobtype               freq
scf_guess             read
scf_algorithm         diis
max_scf_cycles        100
$end

--------------------------------------------------------------

             Standard Nuclear Orientation (Angstroms)
    I     Atom           X                Y                Z
 ----------------------------------------------------------------
    1      C       1.2588893236     0.2987521232    -0.1438413932
    2      C       0.4675911316    -0.9415347481     0.3963546351
    3      C      -0.9042701909    -1.0557482597     0.2343207173
    4      C      -1.6326364192     0.1697293140     0.1497646859
    5      C      -0.8428956760     1.2358681399     0.4908480791
    6      N       0.4733021937     0.9770220997     0.8486565093
    7      H       2.3015498833     0.2049329398     0.1989111892
    8      H       1.0814028675    -1.7053263335     0.8625903169
    9      H      -1.3886390408    -2.0244871240     0.3144321237
   10      H      -2.6825167219     0.2485918484    -0.1031729573
   11      H      -1.1732650379     2.2698753936     0.5504002921
   12      C       1.2368455588     0.5646945651    -1.5677083260
   13      H       1.7878986105    -0.2091073585    -2.1230271194
 ----------------------------------------------------------------

    2    -286.7508321474      2.00E-09 Convergence criterion met
 Total energy in the final basis set = -286.75083215

                    Orbital Energies (a.u.)
 --------------------------------------------------------------

 Alpha MOs
 -- Occupied --
-14.375 -10.260 -10.240 -10.234 -10.231 -10.217 -10.196  -0.971
 -0.806  -0.789  -0.708  -0.616  -0.607  -0.543  -0.496  -0.477
 -0.447  -0.437  -0.417  -0.392  -0.363  -0.313  -0.257  -0.237
 -0.211

 Beta MOs
 -- Occupied --
-14.364 -10.259 -10.242 -10.231 -10.230 -10.212 -10.197  -0.955
 -0.799  -0.779  -0.703  -0.611  -0.599  -0.534  -0.491  -0.469
 -0.443  -0.433  -0.409  -0.386  -0.350  -0.291  -0.252  -0.224

          Ground-State Mulliken Net Atomic Charges

     Atom                 Charge (a.u.)    Spin (a.u.)
  --------------------------------------------------------
      1 C                     0.117438       0.042967
      2 C                    -0.130428      -0.227624
      3 C                    -0.181756       0.396469
      4 C                    -0.034115      -0.090272
      5 C                    -0.225327       0.205261
      6 N                    -0.096344       0.476791
      7 H                     0.161089       0.035811
      8 H                     0.154668       0.024360
      9 H                     0.140931      -0.019801
     10 H                     0.129723       0.003627
     11 H                     0.150026       0.007926
     12 C                    -0.305923       0.144695
     13 H                     0.120018      -0.000211
  --------------------------------------------------------
  Sum of atomic charges =     0.000000

                    Cartesian Multipole Moments
 -----------------------------------------------------------------
    Charge (ESU x 10^10)
                 0.0000
    Dipole Moment (Debye)
         X       0.2102      Y      -1.8289      Z       0.0681
       Tot       1.8422
    Quadrupole Moments (Debye-Ang)
        XX     -36.3862     XY      -2.7090     YY     -40.5676
        XZ      -0.3460     YZ       1.0518     ZZ     -48.7581

 Frequency:      -584.13                 148.47                 209.26
 Force Cnst:      0.7637                 0.0824                 0.0848
 Red. Mass:       3.7986                 6.3421                 3.2886
 IR Intens:       33.503                 11.643                  9.559
 Frequency:       374.52                 489.55                 512.90
 Force Cnst:      0.2067                 0.3593                 0.2390
 Red. Mass:       2.5012                 2.5449                 1.5418
 IR Intens:        8.809                  8.580                 15.627
 Frequency:       605.60                 633.61                 679.62
 Force Cnst:      0.3734                 1.1255                 0.4974
 Red. Mass:       1.7281                 4.7583                 1.8279
 IR Intens:       18.130                  3.825                 17.998
 Frequency:       737.09                 778.90                 817.68
 Force Cnst:      0.6543                 0.6656                 0.7765
 Red. Mass:       2.0441                 1.8622                 1.9711
 IR Intens:      118.172                  3.432                 24.871
 Frequency:       853.41                 856.95                 896.90
 Force Cnst:      0.9146                 1.4190                 0.6548
 Red. Mass:       2.1314                 3.2796                 1.3815
 IR Intens:       21.823                 12.103                  0.365
 Frequency:       967.13                1025.97                1049.55
 Force Cnst:      1.1664                 1.7581                 1.3104
 Red. Mass:       2.1166                 2.8349                 2.0191
 IR Intens:       37.105                 26.534                 10.014
 Frequency:      1062.61                1126.11                1142.33
 Force Cnst:      0.8857                 0.9662                 0.9352
 Red. Mass:       1.3314                 1.2931                 1.2163
 IR Intens:        9.263                  4.113                  1.333
 Frequency:      1214.35                1295.55                1332.84
 Force Cnst:      2.5413                 1.3476                 1.6232
 Red. Mass:       2.9249                 1.3627                 1.5508
 IR Intens:       28.694                  5.385                  3.360
 Frequency:      1389.54                1422.65                1537.67
 Force Cnst:      2.9785                 3.1169                 5.5873
 Red. Mass:       2.6182                 2.6138                 4.0108
 IR Intens:        1.669                 13.058                 14.180
 Frequency:      3003.19                3057.70                3189.62
 Force Cnst:      5.7328                 5.9759                 6.5203
 Red. Mass:       1.0788                 1.0848                 1.0878
 IR Intens:        8.527                 37.543                  0.632
 Frequency:      3193.22                3210.22                3240.09
 Force Cnst:      6.5271                 6.6521                 6.7908
 Red. Mass:       1.0865                 1.0956                 1.0979
 IR Intens:        2.363                  4.463                  7.004

 STANDARD THERMODYNAMIC QUANTITIES AT   298.15 K  AND     1.00 ATM

   This Molecule has  1 Imaginary Frequencies
   Zero point vibrational energy:       60.120 kcal/mol

   Atom    1 Element C  Has Mass   12.00000
   Atom    2 Element C  Has Mass   12.00000
   Atom    3 Element C  Has Mass   12.00000
   Atom    4 Element C  Has Mass   12.00000
   Atom    5 Element C  Has Mass   12.00000
   Atom    6 Element N  Has Mass   14.00307
   Atom    7 Element H  Has Mass    1.00783
   Atom    8 Element H  Has Mass    1.00783
   Atom    9 Element H  Has Mass    1.00783
   Atom   10 Element H  Has Mass    1.00783
   Atom   11 Element H  Has Mass    1.00783
   Atom   12 Element C  Has Mass   12.00000
   Atom   13 Element H  Has Mass    1.00783
   Molecular Mass:    92.050050 amu
   Principal axes and moments of inertia in amu*Bohr^2:
                             1           2           3
    Eigenvalues --      384.58047   590.43216   705.34278
          X               0.91828    -0.08928     0.38574
          Y               0.12142     0.99080    -0.05973
          Z              -0.37686     0.10169     0.92067
   Rotational Symmetry Number is   1
   The Molecule is an Asymmetric Top
   Translational Enthalpy:        0.889 kcal/mol
   Rotational Enthalpy:           0.889 kcal/mol
   Vibrational Enthalpy:         62.045 kcal/mol
   gas constant (RT):             0.592 kcal/mol
   Translational Entropy:        39.471  cal/mol.K
   Rotational Entropy:           26.573  cal/mol.K
   Vibrational Entropy:          10.024  cal/mol.K

   Total Enthalpy:               64.415 kcal/mol
   Total Entropy:                76.068  cal/mol.K

 Total job time:  562.21s(wall), 556.81s(cpu)
        *  Thank you very much for using Q-Chem.  Have a nice day.  *
