 Q-Chem 5.0, Q-Chem, Inc., Pleasanton, CA (2017)
 Q-Chem 5.0.2 for Intel X86 EM64T Linux

User input:
--------------------------------------------------------------
$molecule
0 2
C        1.2536826845    0.2091140761   -0.1312055995
C        0.4334043103   -0.9904690268    0.4618146580
C       -0.9343261611   -1.0751027621    0.3150455837
C       -1.6306436286    0.1588744695    0.1492426968
C       -0.8238753246    1.2288111844    0.4365433708
N        0.4854759029    0.9772403678    0.8144878109
H        2.2888527114    0.1025273602    0.2240116564
H        1.0349891321   -1.7497053376    0.9525910805
H       -1.4494548886   -2.0227768737    0.4475540971
H       -2.6785481870    0.2461691350   -0.1124552676
H       -1.1483985459    2.2673144702    0.4616689685
C        1.2270958318    0.4597376542   -1.5576902527
H        1.9250026451    0.2215278828   -2.3530800501
$end

$rem
method                b3lyp
basis                 6-31+g(d,p)
unrestricted          true
symmetry              off
sym_ignore            true
incdft                false
incfock               0
scf_convergence       6
thresh                14
jobtype               sp
scf_guess             read
scf_algorithm         diis
max_scf_cycles        100
stability_analysis    true
max_cis_cycles        100
cis_n_roots           4
$end

--------------------------------------------------------------

             Standard Nuclear Orientation (Angstroms)
    I     Atom           X                Y                Z
 ----------------------------------------------------------------
    1      C       1.2536826845     0.2091140761    -0.1312055995
    2      C       0.4334043103    -0.9904690268     0.4618146580
    3      C      -0.9343261611    -1.0751027621     0.3150455837
    4      C      -1.6306436286     0.1588744695     0.1492426968
    5      C      -0.8238753246     1.2288111844     0.4365433708
    6      N       0.4854759029     0.9772403678     0.8144878109
    7      H       2.2888527114     0.1025273602     0.2240116564
    8      H       1.0349891321    -1.7497053376     0.9525910805
    9      H      -1.4494548886    -2.0227768737     0.4475540971
   10      H      -2.6785481870     0.2461691350    -0.1124552676
   11      H      -1.1483985459     2.2673144702     0.4616689685
   12      C       1.2270958318     0.4597376542    -1.5576902527
   13      H       1.9250026451     0.2215278828    -2.3530800501
 ----------------------------------------------------------------

    2    -286.7420965271      2.11E-09 Convergence criterion met
 Total energy in the final basis set = -286.74209653

         TDDFT/TDA Excitation Energies
 ---------------------------------------------------

 Excited state   1: excitation energy (eV) =    0.9542
 Total energy for state  1:                  -286.70703162 au
    <S**2>     :  0.8115
    Trans. Mom.:  0.0767 X   0.0472 Y  -0.1682 Z
    Strength   :     0.0008505933
    D( 23) --> V(  1) amplitude =  0.3455 alpha
    D( 24) --> V(  1) amplitude = -0.2664 alpha
    S(  1) --> V(  1) amplitude = -0.1836 alpha
    D( 23) --> S(  1) amplitude =  0.2542 beta
    D( 23) --> V(  1) amplitude = -0.3300 beta
    D( 24) --> S(  1) amplitude =  0.5657 beta
    D( 24) --> V(  1) amplitude = -0.5028 beta

 Excited state   2: excitation energy (eV) =    1.4630
 Total energy for state  2:                  -286.68833234 au
    <S**2>     :  1.5258
    Trans. Mom.: -0.0975 X  -0.0801 Y   0.0699 Z
    Strength   :     0.0007456957
    D( 23) --> S(  1) amplitude =  0.6825 beta
    D( 24) --> S(  1) amplitude = -0.6455 beta
    D( 24) --> V(  1) amplitude = -0.2278 beta

 Excited state   3: excitation energy (eV) =    1.8021
 Total energy for state  3:                  -286.67587064 au
    <S**2>     :  1.3586
    Trans. Mom.:  0.0620 X   0.2385 Y  -0.2683 Z
    Strength   :     0.0058581823
    D( 23) --> V(  1) amplitude = -0.3297 alpha
    D( 24) --> V(  1) amplitude =  0.3249 alpha
    S(  1) --> V(  1) amplitude =  0.7470 alpha
    D( 23) --> S(  1) amplitude =  0.2002 beta
    D( 24) --> V(  1) amplitude = -0.3776 beta

 Excited state   4: excitation energy (eV) =    1.9966
 Total energy for state  4:                  -286.66872247 au
    <S**2>     :  0.9698
    Trans. Mom.:  0.2537 X   0.1538 Y  -0.2063 Z
    Strength   :     0.0063881357
    D( 23) --> V(  1) amplitude = -0.2470 alpha
    D( 24) --> V(  1) amplitude =  0.3697 alpha
    S(  1) --> V(  1) amplitude = -0.2681 alpha
    D( 23) --> S(  1) amplitude =  0.5604 beta
    D( 23) --> V(  1) amplitude =  0.2719 beta
    D( 24) --> S(  1) amplitude =  0.4564 beta
    D( 24) --> V(  1) amplitude =  0.3355 beta

 ---------------------------------------------------

                    Orbital Energies (a.u.)
 --------------------------------------------------------------

 Alpha MOs
 -- Occupied --
-14.372 -10.262 -10.231 -10.229 -10.226 -10.212 -10.191  -0.966
 -0.801  -0.783  -0.698  -0.612  -0.604  -0.539  -0.504  -0.472
 -0.458  -0.432  -0.414  -0.388  -0.360  -0.313  -0.244  -0.237
 -0.208

 Beta MOs
 -- Occupied --
-14.362 -10.260 -10.233 -10.226 -10.224 -10.208 -10.192  -0.949
 -0.794  -0.774  -0.695  -0.607  -0.597  -0.528  -0.500  -0.464
 -0.453  -0.427  -0.405  -0.382  -0.348  -0.290  -0.232  -0.218

          Ground-State Mulliken Net Atomic Charges

     Atom                 Charge (a.u.)    Spin (a.u.)
  --------------------------------------------------------
      1 C                     0.088199       0.057600
      2 C                    -0.167054      -0.193447
      3 C                    -0.173327       0.361534
      4 C                    -0.030129      -0.059928
      5 C                    -0.259103       0.177176
      6 N                    -0.110037       0.496580
      7 H                     0.150682       0.050192
      8 H                     0.150873       0.024024
      9 H                     0.139715      -0.018310
     10 H                     0.127173       0.002984
     11 H                     0.147098       0.010981
     12 C                    -0.209609       0.066466
     13 H                     0.145519       0.024149
  --------------------------------------------------------
  Sum of atomic charges =     0.000000

                    Cartesian Multipole Moments
 -----------------------------------------------------------------
    Charge (ESU x 10^10)
                 0.0000
    Dipole Moment (Debye)
         X       0.4420      Y      -1.3114      Z      -0.5469
       Tot       1.4881
    Quadrupole Moments (Debye-Ang)
        XX     -36.4491     XY      -1.8136     YY     -40.2123
        XZ      -1.7121     YZ      -0.8364     ZZ     -46.4884

 Total job time:  187.49s(wall), 181.98s(cpu)
        *  Thank you very much for using Q-Chem.  Have a nice day.  *
