 Q-Chem 5.0, Q-Chem, Inc., Pleasanton, CA (2017)
 Q-Chem 5.0.2 for Intel X86 EM64T Linux

User input:
--------------------------------------------------------------
$molecule
0 2
C        1.6801790246    0.3941026087   -0.1783820193
C        1.1262118113   -0.8348490310   -0.2685289378
C       -0.3162841307   -1.0621848678   -0.0823204238
C       -1.1557279371    0.3278757744    0.0469936080
C       -0.3269541053    1.5324844040   -0.1484785026
N        0.9598677316    1.5898455975   -0.1662576803
H        2.7570140642    0.5227856985   -0.2501939659
H        1.7478113132   -1.6980287218   -0.4937562742
H       -0.7575702086   -1.9017382680   -0.6224630194
H       -2.1622104709    0.3916870516   -0.3711500977
H       -0.8676481845    2.4600622154   -0.3521833492
C       -0.9589916683   -0.6131773555    1.1517287765
H       -1.7256972399   -1.1088651055    1.7349918851
$end

$rem
method                b3lyp
basis                 6-31g(d)
unrestricted          true
symmetry              off
sym_ignore            true
incdft                false
incfock               0
scf_convergence       8
thresh                14
jobtype               opt
scf_guess             read
scf_algorithm         diis
max_scf_cycles        100
geom_opt_tol_gradient 600
geom_opt_tol_displacement 2400
geom_opt_tol_energy   200
geom_opt_max_cycles   100
$end

--------------------------------------------------------------

    2    -286.8549095738      1.54E-09 Convergence criterion met
 Total energy in the final basis set = -286.85490957

             Standard Nuclear Orientation (Angstroms)
    I     Atom           X                Y                Z
 ----------------------------------------------------------------
    1      C       1.6803675319     0.3944088265    -0.1790180251
    2      C       1.1263270265    -0.8348585862    -0.2676140592
    3      C      -0.3164192080    -1.0620837287    -0.0827109377
    4      C      -1.1560242246     0.3280924979     0.0472046881
    5      C      -0.3270217952     1.5323495191    -0.1492999934
    6      N       0.9598526373     1.5897209631    -0.1662643808
    7      H       2.7572350912     0.5230986752    -0.2507912716
    8      H       1.7480200908    -1.6981009184    -0.4923199450
    9      H      -0.7579959890    -1.9017960298    -0.6224833822
   10      H      -2.1629081669     0.3921498194    -0.3700335218
   11      H      -0.8670913767     2.4605255916    -0.3520289142
   12      C      -0.9585206804    -0.6140093923     1.1512849521
   13      H      -1.7258209373    -1.1094972370     1.7340747902
 ----------------------------------------------------------------

   10    -286.8549113881      8.68E-09 Convergence criterion met
 Total energy in the final basis set = -286.85491139
 Final energy is   -286.854911388092
 **  OPTIMIZATION CONVERGED  **

                    Orbital Energies (a.u.)
 --------------------------------------------------------------

 Alpha MOs
 -- Occupied --
-14.323 -10.230 -10.224 -10.221 -10.219 -10.206 -10.195  -0.934
 -0.868  -0.765  -0.667  -0.641  -0.570  -0.532  -0.491  -0.482
 -0.451  -0.425  -0.376  -0.373  -0.359  -0.300  -0.255  -0.229
 -0.219

 Beta MOs
 -- Occupied --
-14.323 -10.229 -10.224 -10.221 -10.207 -10.204 -10.194  -0.932
 -0.858  -0.763  -0.659  -0.639  -0.556  -0.527  -0.488  -0.473
 -0.447  -0.422  -0.375  -0.371  -0.351  -0.291  -0.250  -0.225

          Ground-State Mulliken Net Atomic Charges

     Atom                 Charge (a.u.)    Spin (a.u.)
  --------------------------------------------------------
      1 C                    -0.009299      -0.014596
      2 C                    -0.083778       0.040918
      3 C                    -0.175887      -0.016722
      4 C                    -0.194232      -0.017233
      5 C                     0.088633       0.019409
      6 N                    -0.391539       0.002398
      7 H                     0.136792       0.000771
      8 H                     0.139536       0.003638
      9 H                     0.155120       0.017075
     10 H                     0.155335       0.022670
     11 H                     0.142806       0.005877
     12 C                    -0.121307       0.959036
     13 H                     0.157819      -0.023242
  --------------------------------------------------------
  Sum of atomic charges =    -0.000000

                    Cartesian Multipole Moments
 -----------------------------------------------------------------
    Charge (ESU x 10^10)
                -0.0000
    Dipole Moment (Debye)
         X      -1.9383      Y      -2.0359      Z      -0.3366
       Tot       2.8311
    Quadrupole Moments (Debye-Ang)
        XX     -36.9990     XY      -2.9636     YY     -41.5660
        XZ      -0.4199     YZ       0.3076     ZZ     -42.3341

 Total job time:  20.14s(wall), 48.73s(cpu)
        *  Thank you very much for using Q-Chem.  Have a nice day.  *
