 Q-Chem 5.0, Q-Chem, Inc., Pleasanton, CA (2017)
 Q-Chem 5.0.2 for Intel X86 EM64T Linux

User input:
--------------------------------------------------------------
$molecule
0 2
C        1.6428181436    0.3991489287   -1.8668536130
C        0.8418079577   -0.9834857900   -1.5979227028
C       -0.6654803719   -0.6635489134   -2.0015152518
C       -1.2090620301    0.3376610132   -0.6230904287
C       -0.5947611059    0.7033358655   -2.0909901375
N        0.7795882116    1.2613601464   -2.1335915503
H        2.7288581113    0.5464875926   -2.0024586206
H        1.2007638005   -1.9950387697   -1.4857462450
H       -1.0425714605   -1.3168958210   -2.9147273412
H       -2.2348527826    0.6172977472   -0.4012814589
H       -1.4815305590    1.1283259972   -2.4866721737
C       -0.8073946607   -1.0578331373   -0.4330517138
H       -0.8693355228   -2.0605048323    0.0939814584
$end

$rem
method                b3lyp
basis                 6-31g(d)
unrestricted          true
symmetry              off
sym_ignore            true
incdft                false
incfock               0
scf_convergence       8
thresh                14
jobtype               opt
scf_guess             read
scf_algorithm         diis
max_scf_cycles        100
geom_opt_tol_gradient 600
geom_opt_tol_displacement 2400
geom_opt_tol_energy   200
geom_opt_max_cycles   100
$end

--------------------------------------------------------------

    2    -286.6872704480      1.59E-09 Convergence criterion met
 Total energy in the final basis set = -286.68727045
   16    -286.7353867425      8.67E-09 Convergence criterion met
 Total energy in the final basis set = -286.73538674
   15    -286.7706426730      8.63E-09 Convergence criterion met
 Total energy in the final basis set = -286.77064267
   15    -286.7954532996      5.35E-09 Convergence criterion met
 Total energy in the final basis set = -286.79545330
   14    -286.8124941304      7.54E-09 Convergence criterion met
 Total energy in the final basis set = -286.81249413
   13    -286.8237701715      8.06E-09 Convergence criterion met
 Total energy in the final basis set = -286.82377017
   13    -286.8305294524      7.75E-09 Convergence criterion met
 Total energy in the final basis set = -286.83052945
   12    -286.8341495052      7.93E-09 Convergence criterion met
   11    -286.8363698382      6.80E-09 Convergence criterion met
 Total energy in the final basis set = -286.83636984
   11    -286.8364832742      4.73E-09 Convergence criterion met
 Total energy in the final basis set = -286.83648327
   11    -286.8364622045      6.07E-09 Convergence criterion met
 Total energy in the final basis set = -286.83646220
   11    -286.8364974482      4.06E-09 Convergence criterion met
 Total energy in the final basis set = -286.83649745
    9    -286.8364998737      6.34E-09 Convergence criterion met
 Total energy in the final basis set = -286.83649987
   10    -286.8365030210      8.42E-09 Convergence criterion met
 Total energy in the final basis set = -286.83650302

             Standard Nuclear Orientation (Angstroms)
    I     Atom           X                Y                Z
 ----------------------------------------------------------------
    1      C       1.4213095656     0.2984795843    -1.7773107490
    2      C       0.7359322131    -1.0099047547    -1.5619803010
    3      C      -0.6020469165    -0.8706898343    -2.2114333616
    4      C      -1.0787016275     0.4165887518    -0.5913987116
    5      C      -0.7328961923     0.6915816078    -2.0611554981
    6      N       0.6383787341     1.2583476615    -2.1014583239
    7      H       2.4908189073     0.4551994855    -1.6409337099
    8      H       1.2674452108    -1.9566747514    -1.5650887249
    9      H      -1.0687927879    -1.5399920506    -2.9283227296
   10      H      -2.0166206154     0.6848645710    -0.1180997148
   11      H      -1.4356001216     1.2524319730    -2.6770095403
   12      C      -0.5548866745    -0.9601126465    -0.6777126171
   13      H      -0.7754919640    -1.8038095703    -0.0320157970
 ----------------------------------------------------------------

    9    -286.8365044751      7.60E-09 Convergence criterion met
 Total energy in the final basis set = -286.83650448
 Final energy is   -286.836504475082
 **  OPTIMIZATION CONVERGED  **

                    Orbital Energies (a.u.)
 --------------------------------------------------------------

 Alpha MOs
 -- Occupied --
-14.318 -10.220 -10.220 -10.215 -10.212 -10.212 -10.194  -0.964
 -0.858  -0.746  -0.657  -0.608  -0.575  -0.540  -0.512  -0.463
 -0.429  -0.412  -0.388  -0.366  -0.329  -0.315  -0.266  -0.256
 -0.174

 Beta MOs
 -- Occupied --
-14.317 -10.221 -10.220 -10.215 -10.211 -10.210 -10.181  -0.961
 -0.854  -0.737  -0.646  -0.602  -0.571  -0.538  -0.501  -0.461
 -0.425  -0.406  -0.385  -0.362  -0.317  -0.303  -0.263  -0.254

          Ground-State Mulliken Net Atomic Charges

     Atom                 Charge (a.u.)    Spin (a.u.)
  --------------------------------------------------------
      1 C                     0.096229       0.006183
      2 C                    -0.192075       0.035627
      3 C                    -0.106956       0.108107
      4 C                    -0.071539       0.951445
      5 C                    -0.099841      -0.042685
      6 N                    -0.337063       0.012490
      7 H                     0.143830       0.003952
      8 H                     0.148719       0.001429
      9 H                     0.149660       0.008597
     10 H                     0.139246      -0.038995
     11 H                     0.141970       0.005247
     12 C                    -0.161849      -0.051668
     13 H                     0.149668       0.000272
  --------------------------------------------------------
  Sum of atomic charges =    -0.000000

                    Cartesian Multipole Moments
 -----------------------------------------------------------------
    Charge (ESU x 10^10)
                -0.0000
    Dipole Moment (Debye)
         X      -0.7138      Y      -2.7509      Z       0.1042
       Tot       2.8439
    Quadrupole Moments (Debye-Ang)
        XX     -36.6644     XY      -2.2265     YY     -42.0789
        XZ       1.8349     YZ       4.7074     ZZ     -41.3802

 Total job time:  512.25s(wall), 755.63s(cpu)
        *  Thank you very much for using Q-Chem.  Have a nice day.  *
