 Q-Chem 5.0, Q-Chem, Inc., Pleasanton, CA (2017)
 Q-Chem 5.0.2 for Intel X86 EM64T Linux

User input:
--------------------------------------------------------------
$molecule
0 2
C        1.2953570991    0.1373341083   -0.3008430373
C        0.5560373282   -1.1675232732   -0.8885361272
C       -0.7161438242   -0.7453921964   -1.3761394043
C       -1.3342208210   -0.0132060876   -0.2506619265
C       -0.6355915461    1.0936095575   -1.1672219178
N        0.6496943590    1.0868197062   -1.1917389382
H        2.4000636515    0.1282178279   -0.4084531386
H        1.0713286273   -2.1201373743   -0.7365249662
H       -0.9507070017   -0.8640962042   -2.4671351466
H       -2.2215201604    0.0365400411    0.3937524127
H       -1.2178538550    1.3808114817   -2.0273430161
C        0.1409173808   -0.4167737542    0.4747631111
H       -0.1471516742   -1.0355489886    1.3826691540
$end

$rem
method                b3lyp
basis                 6-31g(d)
unrestricted          true
symmetry              off
sym_ignore            true
incdft                false
incfock               0
scf_convergence       8
thresh                14
jobtype               opt
scf_guess             read
scf_algorithm         diis
max_scf_cycles        100
geom_opt_tol_gradient 600
geom_opt_tol_displacement 2400
geom_opt_tol_energy   200
geom_opt_max_cycles   100
$end

--------------------------------------------------------------

    2    -286.7157408857      1.18E-09 Convergence criterion met
 Total energy in the final basis set = -286.71574089
   15    -286.7447649577      3.96E-09 Convergence criterion met
 Total energy in the final basis set = -286.74476496
   15    -286.7671542306      8.61E-09 Convergence criterion met
 Total energy in the final basis set = -286.76715423
   15    -286.7844673248      7.99E-09 Convergence criterion met
 Total energy in the final basis set = -286.78446732
   14    -286.7982281352      7.87E-09 Convergence criterion met
 Total energy in the final basis set = -286.79822814
   14    -286.8093865500      5.94E-09 Convergence criterion met
 Total energy in the final basis set = -286.80938655
   14    -286.8183866411      6.67E-09 Convergence criterion met
 Total energy in the final basis set = -286.81838664
   14    -286.8254304260      5.66E-09 Convergence criterion met
   14    -286.8379390902      5.11E-09 Convergence criterion met
 Total energy in the final basis set = -286.83793909
   13    -286.8382576413      9.74E-09 Convergence criterion met
 Total energy in the final basis set = -286.83825764
   11    -286.8382911901      6.26E-09 Convergence criterion met
 Total energy in the final basis set = -286.83829119
   11    -286.8383104645      7.08E-09 Convergence criterion met
 Total energy in the final basis set = -286.83831046
   10    -286.8383168131      9.41E-09 Convergence criterion met
 Total energy in the final basis set = -286.83831681
   12    -286.8383211213      3.81E-09 Convergence criterion met
 Total energy in the final basis set = -286.83832112

             Standard Nuclear Orientation (Angstroms)
    I     Atom           X                Y                Z
 ----------------------------------------------------------------
    1      C       1.1521960391     0.1114853341    -0.4334034341
    2      C       0.5258786591    -1.3075711345    -0.8181504659
    3      C      -0.7983342999    -1.1446308716    -1.4018062590
    4      C      -1.1456071406    -0.0045330049    -0.4466097669
    5      C      -0.5836197737     1.2452079997    -1.1133712423
    6      N       0.6987846074     1.2776837917    -1.1487679720
    7      H       2.1959124166     0.0788052676    -0.1379136714
    8      H       1.1997933545    -2.1557170433    -0.8880518589
    9      H      -1.2042410356    -1.4018330859    -2.3774457046
   10      H      -2.1527083933     0.0510759943    -0.0274302790
   11      H      -1.1894567694     1.9820690750    -1.6383671878
   12      C       0.0823342229    -0.4865403358     0.4067399664
   13      H       0.1092776761    -0.7448471422     1.4611649346
 ----------------------------------------------------------------

   11    -286.8383220930      6.59E-09 Convergence criterion met
 Total energy in the final basis set = -286.83832209
 Final energy is   -286.838322092958
 **  OPTIMIZATION CONVERGED  **

                    Orbital Energies (a.u.)
 --------------------------------------------------------------

 Alpha MOs
 -- Occupied --
-14.320 -10.224 -10.220 -10.210 -10.209 -10.208 -10.206  -0.968
 -0.856  -0.749  -0.664  -0.606  -0.571  -0.535  -0.517  -0.467
 -0.438  -0.405  -0.400  -0.356  -0.336  -0.298  -0.273  -0.256
 -0.182

 Beta MOs
 -- Occupied --
-14.319 -10.222 -10.219 -10.211 -10.209 -10.207 -10.193  -0.964
 -0.850  -0.741  -0.652  -0.602  -0.567  -0.528  -0.511  -0.461
 -0.434  -0.402  -0.393  -0.348  -0.332  -0.292  -0.262  -0.250

          Ground-State Mulliken Net Atomic Charges

     Atom                 Charge (a.u.)    Spin (a.u.)
  --------------------------------------------------------
      1 C                    -0.019187       0.098202
      2 C                    -0.163559      -0.096176
      3 C                    -0.066350       0.887693
      4 C                    -0.258175      -0.065696
      5 C                     0.088648       0.047768
      6 N                    -0.342245       0.038846
      7 H                     0.151447       0.002775
      8 H                     0.147266       0.005274
      9 H                     0.136209      -0.019176
     10 H                     0.142897       0.022784
     11 H                     0.143076       0.001334
     12 C                    -0.108071       0.077129
     13 H                     0.148042      -0.000757
  --------------------------------------------------------
  Sum of atomic charges =    -0.000000

                    Cartesian Multipole Moments
 -----------------------------------------------------------------
    Charge (ESU x 10^10)
                -0.0000
    Dipole Moment (Debye)
         X      -1.1041      Y      -1.4418      Z       0.9438
       Tot       2.0466
    Quadrupole Moments (Debye-Ang)
        XX     -38.2431     XY      -4.3575     YY     -42.7444
        XZ       3.0917     YZ       1.7037     ZZ     -40.8365

 Total job time:  681.69s(wall), 766.26s(cpu)
        *  Thank you very much for using Q-Chem.  Have a nice day.  *
