 Q-Chem 5.0, Q-Chem, Inc., Pleasanton, CA (2017)
 Q-Chem 5.0.2 for Intel X86 EM64T Linux

User input:
--------------------------------------------------------------
$molecule
0 2
C        1.9428671549    0.1644130201   -0.5816694291
C        1.1171166541   -0.7250166629   -0.0036560302
C       -0.2927840060   -0.2256916522   -0.2056906425
C       -1.0511201092    0.0417131585    1.0956345203
C       -0.0024048681    1.0452593303   -0.9825406061
N        1.2505041428    1.2579809599   -1.1897213086
H        3.0249701578    0.1420497572   -0.6411949128
H        1.3785570708   -1.6314259533    0.5273052169
H       -0.8804660219   -0.9148225955   -0.8298881231
H       -0.5399779417    0.7085944320    1.7925776609
H       -0.7717201054    1.7284287703   -1.3355947938
C       -2.2231320458   -0.4639088046    1.4017476031
H       -2.9524100829   -1.1275737599    0.9526908452
$end

$rem
method                b3lyp
basis                 6-31g(d)
unrestricted          true
symmetry              off
sym_ignore            true
incdft                false
incfock               0
scf_convergence       8
thresh                14
jobtype               opt
scf_guess             read
scf_algorithm         diis
max_scf_cycles        100
geom_opt_tol_gradient 600
geom_opt_tol_displacement 2400
geom_opt_tol_energy   200
geom_opt_max_cycles   100
$end

--------------------------------------------------------------

    2    -286.8461971281      3.50E-09 Convergence criterion met
 Total energy in the final basis set = -286.84619713

             Standard Nuclear Orientation (Angstroms)
    I     Atom           X                Y                Z
 ----------------------------------------------------------------
    1      C       1.9427997126     0.1636622669    -0.5825151780
    2      C       1.1172369786    -0.7251453208    -0.0032075939
    3      C      -0.2925882669    -0.2260083392    -0.2058784244
    4      C      -1.0515547775     0.0423184999     1.0948088159
    5      C      -0.0024009058     1.0449329417    -0.9826164106
    6      N       1.2505298137     1.2572693950    -1.1903625572
    7      H       3.0249389825     0.1413452530    -0.6412316382
    8      H       1.3787763483    -1.6316469777     0.5275593801
    9      H      -0.8805829535    -0.9153804152    -0.8293865041
   10      H      -0.5416083522     0.7115137116     1.7902240561
   11      H      -0.7714244171     1.7305576175    -1.3313532082
   12      C      -2.2230776329    -0.4640539680     1.4011871542
   13      H      -2.9510445305    -1.1293646649     0.9527721085
 ----------------------------------------------------------------

   10    -286.8461983073      8.61E-09 Convergence criterion met
 Total energy in the final basis set = -286.84619831
 Final energy is   -286.846198307268
 **  OPTIMIZATION CONVERGED  **

                    Orbital Energies (a.u.)
 --------------------------------------------------------------

 Alpha MOs
 -- Occupied --
-14.333 -10.230 -10.219 -10.215 -10.214 -10.210 -10.195  -0.952
 -0.810  -0.750  -0.712  -0.591  -0.567  -0.554  -0.513  -0.471
 -0.430  -0.412  -0.396  -0.384  -0.349  -0.291  -0.266  -0.243
 -0.238

 Beta MOs
 -- Occupied --
-14.333 -10.230 -10.217 -10.214 -10.212 -10.199 -10.195  -0.952
 -0.804  -0.745  -0.702  -0.581  -0.558  -0.554  -0.511  -0.464
 -0.420  -0.408  -0.396  -0.381  -0.347  -0.286  -0.260  -0.240

          Ground-State Mulliken Net Atomic Charges

     Atom                 Charge (a.u.)    Spin (a.u.)
  --------------------------------------------------------
      1 C                     0.007169       0.006539
      2 C                    -0.126771      -0.003794
      3 C                    -0.249627       0.073654
      4 C                    -0.093204      -0.162749
      5 C                     0.081790       0.003950
      6 N                    -0.367257       0.003482
      7 H                     0.144180       0.000221
      8 H                     0.147810       0.000045
      9 H                     0.173956      -0.003355
     10 H                     0.161770       0.036376
     11 H                     0.153493      -0.000599
     12 C                    -0.194432       1.044588
     13 H                     0.161123       0.001642
  --------------------------------------------------------
  Sum of atomic charges =    -0.000000

                    Cartesian Multipole Moments
 -----------------------------------------------------------------
    Charge (ESU x 10^10)
                -0.0000
    Dipole Moment (Debye)
         X      -0.9698      Y      -1.6584      Z       0.3347
       Tot       1.9501
    Quadrupole Moments (Debye-Ang)
        XX     -38.8672     XY      -1.8282     YY     -42.0834
        XZ       4.0821     YZ       2.1192     ZZ     -44.0768

 Total job time:  70.01s(wall), 48.53s(cpu)
        *  Thank you very much for using Q-Chem.  Have a nice day.  *
