 Q-Chem 5.0, Q-Chem, Inc., Pleasanton, CA (2017)
 Q-Chem 5.0.2 for Intel X86 EM64T Linux

User input:
--------------------------------------------------------------
$molecule
0 2
C        2.5636731014    0.9837525550   -1.4626770075
C       -0.3002502833   -1.1703393763    0.8551944122
C       -1.6458419785   -1.2888227764    1.4067695627
C       -2.3381652478   -0.2261914172    0.9007435852
C       -1.3836107387    0.4913787832    0.0615206148
N       -0.1693516175   -0.0949747082    0.0515078083
H        1.6738818986    0.6226978552   -0.9749848267
H        0.5361101716   -1.8372951414    1.0360792719
H       -1.9962936392   -2.0633939495    2.0755478301
H       -3.3713419866    0.0474641618    1.0690258356
H       -1.5719337150    1.3937110091   -0.5108408481
C        3.5616313030    1.3907552131   -2.0124775136
H        4.4414927320    1.7512577916   -2.4954087250
$end

$rem
method                b3lyp
basis                 6-31+g(d,p)
unrestricted          true
symmetry              off
sym_ignore            true
incdft                false
incfock               0
scf_convergence       6
thresh                14
jobtype               sp
scf_guess             read
scf_algorithm         diis
max_scf_cycles        100
stability_analysis    true
max_cis_cycles        100
cis_n_roots           4
$end

--------------------------------------------------------------

             Standard Nuclear Orientation (Angstroms)
    I     Atom           X                Y                Z
 ----------------------------------------------------------------
    1      C       2.5636731014     0.9837525550    -1.4626770075
    2      C      -0.3002502833    -1.1703393763     0.8551944122
    3      C      -1.6458419785    -1.2888227764     1.4067695627
    4      C      -2.3381652478    -0.2261914172     0.9007435852
    5      C      -1.3836107387     0.4913787832     0.0615206148
    6      N      -0.1693516175    -0.0949747082     0.0515078083
    7      H       1.6738818986     0.6226978552    -0.9749848267
    8      H       0.5361101716    -1.8372951414     1.0360792719
    9      H      -1.9962936392    -2.0633939495     2.0755478301
   10      H      -3.3713419866     0.0474641618     1.0690258356
   11      H      -1.5719337150     1.3937110091    -0.5108408481
   12      C       3.5616313030     1.3907552131    -2.0124775136
   13      H       4.4414927320     1.7512577916    -2.4954087250
 ----------------------------------------------------------------

    2    -286.8705906283      1.48E-09 Convergence criterion met
 Total energy in the final basis set = -286.87059063

         TDDFT/TDA Excitation Energies
 ---------------------------------------------------

 Excited state   1: excitation energy (eV) =    1.5636
 Total energy for state  1:                  -286.81313026 au
    <S**2>     :  0.8111
    Trans. Mom.: -0.0965 X   0.1475 Y  -0.0698 Z
    Strength   :     0.0013762818
    D( 22) --> S(  1) amplitude =  0.2840 beta
    D( 24) --> S(  1) amplitude =  0.9464 beta

 Excited state   2: excitation energy (eV) =    2.2400
 Total energy for state  2:                  -286.78827047 au
    <S**2>     :  0.7707
    Trans. Mom.:  0.0006 X   0.0011 Y  -0.0007 Z
    Strength   :     0.0000001132
    D( 21) --> S(  1) amplitude =  0.9980 beta

 Excited state   3: excitation energy (eV) =    2.5909
 Total energy for state  3:                  -286.77537634 au
    <S**2>     :  0.7758
    Trans. Mom.: -0.0054 X   0.0089 Y  -0.0044 Z
    Strength   :     0.0000080865
    D( 22) --> S(  1) amplitude =  0.9574 beta
    D( 24) --> S(  1) amplitude = -0.2884 beta

 Excited state   4: excitation energy (eV) =    2.5966
 Total energy for state  4:                  -286.77516588 au
    <S**2>     :  0.7757
    Trans. Mom.:  0.0033 X  -0.0014 Y  -0.0072 Z
    Strength   :     0.0000041253
    D( 23) --> S(  1) amplitude =  0.9999 beta

 ---------------------------------------------------

                    Orbital Energies (a.u.)
 --------------------------------------------------------------

 Alpha MOs
 -- Occupied --
-14.344 -10.262 -10.262 -10.221 -10.220 -10.183 -10.179  -0.981
 -0.790  -0.743  -0.734  -0.590  -0.584  -0.550  -0.538  -0.475
 -0.438  -0.431  -0.424  -0.411  -0.296  -0.275  -0.274  -0.273
 -0.262

 Beta MOs
 -- Occupied --
-14.347 -10.255 -10.255 -10.220 -10.219 -10.183 -10.179  -0.975
 -0.787  -0.734  -0.722  -0.584  -0.573  -0.550  -0.536  -0.475
 -0.434  -0.421  -0.405  -0.402  -0.298  -0.274  -0.274  -0.270

          Ground-State Mulliken Net Atomic Charges

     Atom                 Charge (a.u.)    Spin (a.u.)
  --------------------------------------------------------
      1 C                    -0.082895       0.000312
      2 C                    -0.035869       0.530957
      3 C                    -0.135340       0.079879
      4 C                    -0.133589       0.082454
      5 C                    -0.037894       0.529789
      6 N                    -0.180437      -0.160320
      7 H                     0.210537       0.001404
      8 H                     0.145974      -0.026355
      9 H                     0.143132      -0.005801
     10 H                     0.143092      -0.005900
     11 H                     0.146017      -0.026317
     12 C                    -0.365654      -0.000115
     13 H                     0.182925       0.000013
  --------------------------------------------------------
  Sum of atomic charges =    -0.000000

                    Cartesian Multipole Moments
 -----------------------------------------------------------------
    Charge (ESU x 10^10)
                -0.0000
    Dipole Moment (Debye)
         X      -2.6002      Y      -0.9614      Z       1.5383
       Tot       3.1705
    Quadrupole Moments (Debye-Ang)
        XX     -37.1695     XY      -0.9105     YY     -39.4717
        XZ      -1.9251     YZ      -3.8994     ZZ     -42.4722

 Total job time:  156.74s(wall), 98.79s(cpu)
        *  Thank you very much for using Q-Chem.  Have a nice day.  *
