 Q-Chem 5.0, Q-Chem, Inc., Pleasanton, CA (2017)
 Q-Chem 5.0.2 for Intel X86 EM64T Linux

User input:
--------------------------------------------------------------
$molecule
0 2
C        1.6670035813    0.1680809530   -0.6383855582
C        0.0729444216   -1.1302822646    0.7307753285
C       -1.2523213940   -1.0321219540    1.0826775744
C       -1.7695968865    0.1476088470    0.4618863918
C       -0.7426568644    0.7281526013   -0.2464450435
N        0.3883101959   -0.0525371459   -0.0841127908
H        2.3845399130   -0.5986604941   -0.3498900400
H        0.8247019537   -1.8641464098    0.9816296278
H       -1.7927911590   -1.7242593069    1.7129517347
H       -2.7803065930    0.5253991712    0.5302703858
H       -0.7164922720    1.6231826450   -0.8487616877
C        2.0404484667    1.1590767698   -1.4237870040
H        1.6762166367    2.0505065885   -1.9088089188
$end

$rem
method                b3lyp
basis                 6-31+g(d,p)
unrestricted          true
symmetry              off
sym_ignore            true
incdft                false
incfock               0
scf_convergence       8
thresh                14
jobtype               sp
scf_guess             core
scf_guess_mix         5
scf_algorithm         diis
max_scf_cycles        100
$end

--------------------------------------------------------------

             Standard Nuclear Orientation (Angstroms)
    I     Atom           X                Y                Z
 ----------------------------------------------------------------
    1      C       1.6670035813     0.1680809530    -0.6383855582
    2      C       0.0729444216    -1.1302822646     0.7307753285
    3      C      -1.2523213940    -1.0321219540     1.0826775744
    4      C      -1.7695968865     0.1476088470     0.4618863918
    5      C      -0.7426568644     0.7281526013    -0.2464450435
    6      N       0.3883101959    -0.0525371459    -0.0841127908
    7      H       2.3845399130    -0.5986604941    -0.3498900400
    8      H       0.8247019537    -1.8641464098     0.9816296278
    9      H      -1.7927911590    -1.7242593069     1.7129517347
   10      H      -2.7803065930     0.5253991712     0.5302703858
   11      H      -0.7164922720     1.6231826450    -0.8487616877
   12      C       2.0404484667     1.1590767698    -1.4237870040
   13      H       1.6762166367     2.0505065885    -1.9088089188
 ----------------------------------------------------------------

   21    -286.8952443538      4.01E-09 Convergence criterion met
 Total energy in the final basis set = -286.89524435

                    Orbital Energies (a.u.)
 --------------------------------------------------------------

 Alpha MOs
 -- Occupied --
-14.408 -10.253 -10.227 -10.220 -10.217 -10.186 -10.185  -1.002
 -0.830  -0.749  -0.734  -0.629  -0.585  -0.557  -0.543  -0.469
 -0.447  -0.437  -0.426  -0.397  -0.387  -0.317  -0.265  -0.239
 -0.226

 Beta MOs
 -- Occupied --
-14.406 -10.255 -10.220 -10.217 -10.212 -10.187 -10.185  -1.000
 -0.824  -0.738  -0.730  -0.616  -0.582  -0.555  -0.534  -0.462
 -0.443  -0.437  -0.423  -0.395  -0.387  -0.313  -0.231  -0.226

          Ground-State Mulliken Net Atomic Charges

     Atom                 Charge (a.u.)    Spin (a.u.)
  --------------------------------------------------------
      1 C                    -0.038988      -0.139051
      2 C                    -0.213779       0.021814
      3 C                    -0.076163      -0.020935
      4 C                    -0.144001       0.034349
      5 C                    -0.202117      -0.036550
      6 N                     0.016511       0.036897
      7 H                     0.142291       0.038474
      8 H                     0.133544       0.000253
      9 H                     0.126532       0.001709
     10 H                     0.126113       0.001011
     11 H                     0.134446      -0.000292
     12 C                    -0.158064       1.063342
     13 H                     0.153674      -0.001022
  --------------------------------------------------------
  Sum of atomic charges =    -0.000000

                    Cartesian Multipole Moments
 -----------------------------------------------------------------
    Charge (ESU x 10^10)
                 0.0000
    Dipole Moment (Debye)
         X       0.3201      Y       0.0884      Z      -0.1592
       Tot       0.3683
    Quadrupole Moments (Debye-Ang)
        XX     -41.2901     XY      -2.6653     YY     -39.0151
        XZ      -0.0471     YZ      -4.5439     ZZ     -44.0360

 Total job time:  66.50s(wall), 104.56s(cpu)
        *  Thank you very much for using Q-Chem.  Have a nice day.  *
