 Q-Chem 5.0, Q-Chem, Inc., Pleasanton, CA (2017)
 Q-Chem 5.0.2 for Intel X86 EM64T Linux

User input:
--------------------------------------------------------------
$molecule
0 2
C        1.3515648765    0.6314612414   -0.8213253580
C       -0.0458246703   -1.1280152311    0.2543876568
C       -1.2657314404   -1.1473013101    0.8840990440
C       -1.7781154400    0.1874457416    0.8744607778
C       -0.8513006032    0.9748044101    0.2392514389
N        0.2130537145    0.1725028377   -0.1424922788
H        1.3227203401    1.7063674855   -1.0187007866
H        0.6684763266   -1.9106510542    0.0463175737
H       -1.7432001299   -2.0207935005    1.3076811067
H       -2.7193862038    0.5245265042    1.2873267263
H       -0.8423165704    2.0328775389    0.0194116316
C        2.3785382621   -0.0986651020   -1.2085288878
H        3.3115215383    0.0754404382   -1.7218886445
****
C        2.8466583730   -0.3121073710   -2.2892377232
C       -0.1891340782    0.0798769719    0.4726827320
C       -1.4693166275   -0.2038390146   -0.1705769152
C       -2.3880430829   -0.1851223836    0.8356520336
C       -1.6230063587    0.1098882753    2.0440734884
N       -0.3081055486    0.2648313488    1.8031164717
H        2.4514160248   -1.0082518795   -2.9944993252
H        0.7774692123    0.1457043626   -0.0181815928
H       -1.6283544252   -0.3856728150   -1.2257574982
H       -3.4565584666   -0.3487593930    0.7785438801
H       -2.0197306199    0.2051028134    3.0507516988
C        3.2992697984    0.4723046389   -1.4936104695
H        3.7074357993    1.1660444456   -0.7929567804
$end

$rem
method                b3lyp
basis                 6-31g(d)
unrestricted          true
symmetry              off
sym_ignore            true
incdft                false
incfock               0
scf_convergence       8
thresh                14
jobtype               fsm
scf_guess             core
scf_guess_mix         5
scf_algorithm         diis
max_scf_cycles        100
fsm_nnode             21
fsm_ngrad             6
fsm_mode              2
fsm_opt_mode          2
$end

--------------------------------------------------------------

   22    -286.8723944753      3.71E-09 Convergence criterion met
 Total energy in the final basis set = -286.87239448
   24    -286.8379962597      4.47E-09 Convergence criterion met
 Total energy in the final basis set = -286.83799626
   23    -286.8558857737      6.28E-09 Convergence criterion met
 Total energy in the final basis set = -286.85588577
   23    -286.8639115114      2.38E-09 Convergence criterion met
 Total energy in the final basis set = -286.86391151
   24    -286.8372239354      9.77E-09 Convergence criterion met
 Total energy in the final basis set = -286.83722394
   24    -286.8290784866      2.90E-09 Convergence criterion met
 Total energy in the final basis set = -286.82907849
   25    -286.8283891226      7.29E-09 Convergence criterion met
 Total energy in the final basis set = -286.82838912
   25    -286.8329705589      9.00E-09 Convergence criterion met
 Total energy in the final basis set = -286.75585433
   25    -286.7552403969      9.66E-09 Convergence criterion met
 Total energy in the final basis set = -286.75524040
   28    -286.7561869043      3.15E-09 Convergence criterion met
 Total energy in the final basis set = -286.75618690
   27    -286.7549282126      7.49E-09 Convergence criterion met
 Total energy in the final basis set = -286.75492821
   28    -286.7563825612      3.95E-09 Convergence criterion met
 Total energy in the final basis set = -286.75638256
   26    -286.7547523608      8.98E-09 Convergence criterion met
 Total energy in the final basis set = -286.75475236
   28    -286.7564612337      4.37E-09 Convergence criterion met
 Total energy in the final basis set = -286.75646123
   26    -286.7546884935      8.08E-09 Convergence criterion met
 Total energy in the final basis set = -286.75468849

                    Orbital Energies (a.u.)
 --------------------------------------------------------------

 Alpha MOs
 -- Occupied --
-14.341 -10.219 -10.210 -10.210 -10.208 -10.193 -10.163  -0.930
 -0.772  -0.743  -0.706  -0.566  -0.547  -0.546  -0.504  -0.478
 -0.399  -0.395  -0.382  -0.376  -0.333  -0.289  -0.240  -0.228
 -0.214

 Beta MOs
 -- Occupied --
-14.337 -10.222 -10.208 -10.204 -10.203 -10.189 -10.164  -0.921
 -0.763  -0.735  -0.697  -0.559  -0.542  -0.541  -0.499  -0.475
 -0.395  -0.389  -0.378  -0.363  -0.318  -0.283  -0.228  -0.199

          Ground-State Mulliken Net Atomic Charges

     Atom                 Charge (a.u.)    Spin (a.u.)
  --------------------------------------------------------
      1 C                    -0.198457      -0.180928
      2 C                     0.050981       0.281790
      3 C                    -0.159763      -0.098755
      4 C                    -0.151997       0.260716
      5 C                     0.003910       0.097879
      6 N                    -0.416167       0.171630
      7 H                     0.205837       0.015680
      8 H                     0.151382      -0.013824
      9 H                     0.123933       0.002939
     10 H                     0.140151      -0.008408
     11 H                     0.144878      -0.006952
     12 C                    -0.098663       0.503694
     13 H                     0.203976      -0.025462
  --------------------------------------------------------
  Sum of atomic charges =    -0.000000

                    Cartesian Multipole Moments
 -----------------------------------------------------------------
    Charge (ESU x 10^10)
                -0.0000
    Dipole Moment (Debye)
         X       1.2201      Y      -0.9778      Z       0.1342
       Tot       1.5693
    Quadrupole Moments (Debye-Ang)
        XX     -32.3324     XY      -3.1900     YY     -40.2496
        XZ      -3.7994     YZ       1.0547     ZZ     -38.9749

             Standard Nuclear Orientation (Angstroms)
    I     Atom           X                Y                Z
 ----------------------------------------------------------------
    1      C       2.0051621185     0.5073544991    -0.5444426369
    2      C      -0.0996892517    -0.7712076080     0.0655414297
    3      C      -1.1577504030    -1.0634244093     0.9066458936
    4      C      -1.8993093100     0.1267048798     0.9786876914
    5      C      -1.2340044725     1.1028286403     0.1941112242
    6      N      -0.1291613985     0.5400732537    -0.4065803838
    7      H       2.4817947157     0.5052730226     0.4329657871
    8      H       0.6773600005    -1.4115996603    -0.3318980311
    9      H      -1.2943777948    -1.9831544818     1.4530660312
   10      H      -2.8799373799     0.2321927877     1.4374398270
   11      H      -1.6933135363     2.0330683988    -0.1363576309
   12      C       2.3760683497     0.1982447700    -1.6834015247
   13      H       2.9257489149    -0.1778907375    -2.5316720779
 ----------------------------------------------------------------

 Total job time:  3647.05s(wall), 4896.81s(cpu)
        *  Thank you very much for using Q-Chem.  Have a nice day.  *
