 Q-Chem 5.0, Q-Chem, Inc., Pleasanton, CA (2017)
 Q-Chem 5.0.2 for Intel X86 EM64T Linux

User input:
--------------------------------------------------------------
$molecule
0 2
C        2.4722227332    0.7652582724   -0.4558391821
C       -0.4583338743   -1.2924773541   -0.0124886146
C       -1.3660881255   -1.1118900273    1.1194993895
C       -1.7809978075    0.1867976097    1.0417294345
C       -1.1054832850    0.7353408805   -0.1331164356
N       -0.3397611955   -0.1784857641   -0.7572426928
H        2.1903738398    0.7202840861    0.5704752708
H        0.1121908757   -2.1839517774   -0.2539223186
H       -1.6431448052   -1.8677187909    1.8418396796
H       -2.4686808832    0.7161126332    1.6872877038
H       -1.1450211845    1.7607475034   -0.4873835085
C        2.7259204166    0.7929956688   -1.6368727871
H        2.8853938488    0.7954504155   -2.6898603367
$end

$rem
method                b3lyp
basis                 6-31+g(d,p)
unrestricted          true
symmetry              off
sym_ignore            true
incdft                false
incfock               0
scf_convergence       8
thresh                14
jobtype               opt
scf_guess             read
scf_algorithm         diis
max_scf_cycles        100
geom_opt_max_cycles   300
$end

--------------------------------------------------------------

   20    -286.8580805880      2.65E-09 Convergence criterion met
 Total energy in the final basis set = -286.85808059
   12    -286.8598160302      8.43E-09 Convergence criterion met
 Total energy in the final basis set = -286.85981603
   12    -286.8610151443      7.76E-09 Convergence criterion met
 Total energy in the final basis set = -286.86101514
   14    -286.8618378222      3.18E-09 Convergence criterion met
 Total energy in the final basis set = -286.86183782
   14    -286.8624120896      2.88E-09 Convergence criterion met
 Total energy in the final basis set = -286.86241209
   13    -286.8628397092      9.95E-09 Convergence criterion met
 Total energy in the final basis set = -286.86283971
   13    -286.8631795660      8.18E-09 Convergence criterion met
 Total energy in the final basis set = -286.86317957
   12    -286.8634512910      8.95E-09 Convergence criterion met
   12    -286.8706190587      5.62E-09 Convergence criterion met
 Total energy in the final basis set = -286.87061906
   12    -286.8706207162      7.03E-09 Convergence criterion met
 Total energy in the final basis set = -286.87062072
   12    -286.8706217369      6.29E-09 Convergence criterion met
 Total energy in the final basis set = -286.87062174
   12    -286.8706232043      9.32E-09 Convergence criterion met
 Total energy in the final basis set = -286.87062320
   12    -286.8706246506      9.97E-09 Convergence criterion met
 Total energy in the final basis set = -286.87062465
   12    -286.8706256735      6.39E-09 Convergence criterion met
 Total energy in the final basis set = -286.87062567

             Standard Nuclear Orientation (Angstroms)
    I     Atom           X                Y                Z
 ----------------------------------------------------------------
    1      C       2.6731499726     0.7511948990    -1.4203991901
    2      C      -0.5712723791    -1.2928655477     0.4498459594
    3      C      -1.8706855333    -1.2600527299     1.1133523888
    4      C      -2.2582392490     0.0489512889     1.0835688056
    5      C      -1.1780314650     0.7552604497     0.4016607860
    6      N      -0.1788748037    -0.0716375071     0.0323262415
    7      H       1.7411551783     0.4781224712    -0.9548356561
    8      H       0.0509812432    -2.1661757605     0.2841211528
    9      H      -2.3950064204    -2.1079867905     1.5333210351
   10      H      -3.1652429764     0.4928289074     1.4720579276
   11      H      -1.1300342146     1.8179124446     0.1883938510
   12      C       3.7192321434     1.0596133255    -1.9444073616
   13      H       4.6414591119     1.3332979017    -2.4049003613
 ----------------------------------------------------------------

   12    -286.8706263123      5.09E-09 Convergence criterion met
 Total energy in the final basis set = -286.87062631
 Final energy is   -286.870626312283
 **  OPTIMIZATION CONVERGED  **

                    Orbital Energies (a.u.)
 --------------------------------------------------------------

 Alpha MOs
 -- Occupied --
-14.344 -10.262 -10.262 -10.221 -10.220 -10.183 -10.179  -0.981
 -0.790  -0.743  -0.734  -0.590  -0.584  -0.550  -0.538  -0.475
 -0.438  -0.431  -0.424  -0.411  -0.296  -0.275  -0.274  -0.273
 -0.262

 Beta MOs
 -- Occupied --
-14.347 -10.255 -10.255 -10.220 -10.219 -10.183 -10.179  -0.975
 -0.787  -0.734  -0.722  -0.584  -0.573  -0.550  -0.536  -0.475
 -0.434  -0.421  -0.405  -0.401  -0.298  -0.274  -0.274  -0.270

          Ground-State Mulliken Net Atomic Charges

     Atom                 Charge (a.u.)    Spin (a.u.)
  --------------------------------------------------------
      1 C                    -0.082978       0.000298
      2 C                    -0.036193       0.531043
      3 C                    -0.135224       0.080020
      4 C                    -0.134080       0.082222
      5 C                    -0.037708       0.529843
      6 N                    -0.179871      -0.160376
      7 H                     0.210389       0.001409
      8 H                     0.145967      -0.026360
      9 H                     0.143131      -0.005808
     10 H                     0.143138      -0.005891
     11 H                     0.146004      -0.026316
     12 C                    -0.365519      -0.000098
     13 H                     0.182946       0.000014
  --------------------------------------------------------
  Sum of atomic charges =     0.000000

                    Cartesian Multipole Moments
 -----------------------------------------------------------------
    Charge (ESU x 10^10)
                -0.0000
    Dipole Moment (Debye)
         X      -2.6962      Y      -0.7630      Z       1.4842
       Tot       3.1709
    Quadrupole Moments (Debye-Ang)
        XX     -38.1566     XY      -0.3139     YY     -37.1435
        XZ      -3.4494     YZ      -1.2375     ZZ     -43.8681

 Total job time:  6179.46s(wall), 9096.46s(cpu)
        *  Thank you very much for using Q-Chem.  Have a nice day.  *
