 Q-Chem 5.0, Q-Chem, Inc., Pleasanton, CA (2017)
 Q-Chem 5.0.2 for Intel X86 EM64T Linux

User input:
--------------------------------------------------------------
$molecule
0 2
C        1.6573366290    0.4889498096   -0.4393192176
C       -0.0343933500   -1.1976862064    0.2562454652
C       -1.2843593660   -1.1319918290    0.8323359203
C       -1.7216874467    0.2244852252    0.7495643695
C       -0.7242163005    0.9418697914    0.1258596631
N        0.3028788735    0.0682725216   -0.1951142090
H        2.2327728382    0.7058212996    0.4623028373
H        0.6430578434   -2.0266276582    0.1145481493
H       -1.8251718532   -1.9629429105    1.2634820574
H       -2.6603804483    0.6260361612    1.1050876049
H       -0.6505173110    1.9888351917   -0.1283008777
C        2.1919260591    0.6149785756   -1.6330316977
H        1.9513443836    0.4984633821   -2.6795544692
$end

$rem
method                b3lyp
basis                 6-31+g(d,p)
unrestricted          true
symmetry              off
sym_ignore            true
incdft                false
incfock               0
scf_convergence       8
thresh                14
jobtype               opt
scf_guess             read
scf_algorithm         diis
max_scf_cycles        100
geom_opt_max_cycles   300
$end

--------------------------------------------------------------

   20    -286.8869305042      2.46E-09 Convergence criterion met
 Total energy in the final basis set = -286.88693050
   13    -286.8877967260      6.66E-09 Convergence criterion met
 Total energy in the final basis set = -286.88779673
   13    -286.8885181076      8.39E-09 Convergence criterion met
 Total energy in the final basis set = -286.88851811
   13    -286.8887355093      4.51E-09 Convergence criterion met
 Total energy in the final basis set = -286.88873551
   12    -286.8887991332      8.63E-09 Convergence criterion met
 Total energy in the final basis set = -286.88879913
   13    -286.8889299897      3.83E-09 Convergence criterion met
 Total energy in the final basis set = -286.88892999
   14    -286.8841730321      7.27E-09 Convergence criterion met
 Total energy in the final basis set = -286.88417303
   14    -286.8891530356      8.51E-09 Convergence criterion met
   14    -286.8942533938      3.75E-09 Convergence criterion met
 Total energy in the final basis set = -286.89425339
   14    -286.8948084260      9.36E-09 Convergence criterion met
 Total energy in the final basis set = -286.89480843
   13    -286.8951042061      8.99E-09 Convergence criterion met
 Total energy in the final basis set = -286.89510421
   13    -286.8952022461      7.21E-09 Convergence criterion met
 Total energy in the final basis set = -286.89520225
   13    -286.8952333424      2.81E-09 Convergence criterion met
 Total energy in the final basis set = -286.89523334
   13    -286.8952436679      1.90E-09 Convergence criterion met
 Total energy in the final basis set = -286.89524367

             Standard Nuclear Orientation (Angstroms)
    I     Atom           X                Y                Z
 ----------------------------------------------------------------
    1      C       1.6730490083     0.1556550571    -0.6511466662
    2      C       0.0789898486    -1.1427081605     0.7180142205
    3      C      -1.2462759670    -1.0445478499     1.0699164664
    4      C      -1.7635514595     0.1351829511     0.4491252838
    5      C      -0.7366114374     0.7157267054    -0.2592061515
    6      N       0.3943556229    -0.0649630418    -0.0968738988
    7      H       2.3905853400    -0.6110863900    -0.3626511480
    8      H       0.8307473807    -1.8765723057     0.9688685198
    9      H      -1.7867457320    -1.7366852028     1.7001906267
   10      H      -2.7742611660     0.5129732753     0.5175092778
   11      H      -0.7104468450     1.6107567491    -0.8615227957
   12      C       2.0464938937     1.1466508739    -1.4365481120
   13      H       1.6822620637     2.0380806926    -1.9215700268
 ----------------------------------------------------------------

   10    -286.8952443538      4.79E-09 Convergence criterion met
 Total energy in the final basis set = -286.89524435
 Final energy is   -286.895244353819
 **  OPTIMIZATION CONVERGED  **

                    Orbital Energies (a.u.)
 --------------------------------------------------------------

 Alpha MOs
 -- Occupied --
-14.408 -10.253 -10.227 -10.220 -10.217 -10.186 -10.185  -1.002
 -0.830  -0.749  -0.734  -0.629  -0.585  -0.557  -0.543  -0.469
 -0.447  -0.437  -0.426  -0.397  -0.387  -0.317  -0.265  -0.239
 -0.226

 Beta MOs
 -- Occupied --
-14.406 -10.255 -10.220 -10.217 -10.212 -10.187 -10.185  -1.000
 -0.824  -0.738  -0.730  -0.616  -0.582  -0.555  -0.534  -0.462
 -0.443  -0.437  -0.423  -0.395  -0.387  -0.313  -0.231  -0.226

          Ground-State Mulliken Net Atomic Charges

     Atom                 Charge (a.u.)    Spin (a.u.)
  --------------------------------------------------------
      1 C                    -0.038988      -0.139057
      2 C                    -0.213779       0.021805
      3 C                    -0.076163      -0.020928
      4 C                    -0.144001       0.034343
      5 C                    -0.202116      -0.036548
      6 N                     0.016511       0.036902
      7 H                     0.142291       0.038474
      8 H                     0.133544       0.000254
      9 H                     0.126532       0.001709
     10 H                     0.126113       0.001011
     11 H                     0.134446      -0.000292
     12 C                    -0.158064       1.063348
     13 H                     0.153674      -0.001022
  --------------------------------------------------------
  Sum of atomic charges =     0.000000

                    Cartesian Multipole Moments
 -----------------------------------------------------------------
    Charge (ESU x 10^10)
                 0.0000
    Dipole Moment (Debye)
         X       0.3201      Y       0.0884      Z      -0.1592
       Tot       0.3683
    Quadrupole Moments (Debye-Ang)
        XX     -41.2862     XY      -2.6687     YY     -39.0173
        XZ      -0.0522     YZ      -4.5430     ZZ     -44.0320

 Total job time:  983.82s(wall), 1671.57s(cpu)
        *  Thank you very much for using Q-Chem.  Have a nice day.  *
