 Q-Chem 5.0, Q-Chem, Inc., Pleasanton, CA (2017)
 Q-Chem 5.0.2 for Intel X86 EM64T Linux

User input:
--------------------------------------------------------------
$molecule
0 2
C        4.4483117052    0.6459393816   -3.6514677194
C       -0.8333674815   -0.1425073700    1.1198437923
C       -1.9870916853   -0.9980632637    0.8556235672
C       -3.0320178741   -0.3915008652    1.4865555453
C       -2.4629495500    0.8029127967    2.1048927229
N       -1.1432294501    0.9319978900    1.8704967634
H        4.2132539085    1.2685501607   -4.4850846797
H        0.1831835466   -0.3059070486    0.7744448836
H       -1.9868919112   -1.9133358502    0.2777549023
H       -4.0665057213   -0.7065157366    1.5336664595
H       -2.9977410894    1.5404849824    2.6961110817
C        4.7143998261   -0.0553084007   -2.7084593842
H        4.9506457767   -0.6767466766   -1.8743779348
$end

$rem
method                b3lyp
basis                 6-31g(d)
unrestricted          true
symmetry              off
sym_ignore            true
incdft                false
incfock               0
scf_convergence       8
thresh                14
jobtype               opt
scf_guess             core
scf_guess_mix         5
scf_algorithm         diis
max_scf_cycles        100
geom_opt_max_cycles   300
$end

--------------------------------------------------------------

   36    -286.8363742934      5.87E-09 Convergence criterion met
 Total energy in the final basis set = -286.83637429
   17    -286.8363753241      2.77E-09 Convergence criterion met
 Total energy in the final basis set = -286.83637532
   17    -286.8363778068      3.37E-09 Convergence criterion met
 Total energy in the final basis set = -286.83637781
   17    -286.8363915671      5.56E-09 Convergence criterion met
 Total energy in the final basis set = -286.83639157
   17    -286.8305494122      7.10E-09 Convergence criterion met
 Total energy in the final basis set = -286.83054941
   17    -286.8363532559      4.88E-09 Convergence criterion met
 Total energy in the final basis set = -286.83635326
   17    -286.8364168495      5.31E-09 Convergence criterion met
 Total energy in the final basis set = -286.83641685
   17    -286.8364391358      5.41E-09 Convergence criterion met
   16    -286.8379911213      9.77E-09 Convergence criterion met
 Total energy in the final basis set = -286.83799112
   16    -286.8379969627      9.74E-09 Convergence criterion met
 Total energy in the final basis set = -286.83799696
   16    -286.8380017692      9.71E-09 Convergence criterion met
 Total energy in the final basis set = -286.83800177
   16    -286.8380060652      9.69E-09 Convergence criterion met
 Total energy in the final basis set = -286.83800607
   16    -286.8380091374      9.64E-09 Convergence criterion met
 Total energy in the final basis set = -286.83800914
   16    -286.8380106206      9.60E-09 Convergence criterion met
 Total energy in the final basis set = -286.83801062

             Standard Nuclear Orientation (Angstroms)
    I     Atom           X                Y                Z
 ----------------------------------------------------------------
    1      C       2.8466583730    -0.3121073710    -2.2892377232
    2      C      -0.1891340782     0.0798769719     0.4726827320
    3      C      -1.4693166275    -0.2038390146    -0.1705769152
    4      C      -2.3880430829    -0.1851223836     0.8356520336
    5      C      -1.6230063587     0.1098882753     2.0440734884
    6      N      -0.3081055486     0.2648313488     1.8031164717
    7      H       2.4514160248    -1.0082518795    -2.9944993252
    8      H       0.7774692123     0.1457043626    -0.0181815928
    9      H      -1.6283544252    -0.3856728150    -1.2257574982
   10      H      -3.4565584666    -0.3487593930     0.7785438801
   11      H      -2.0197306199     0.2051028134     3.0507516988
   12      C       3.2992697984     0.4723046389    -1.4936104695
   13      H       3.7074357993     1.1660444456    -0.7929567804
 ----------------------------------------------------------------

   16    -286.8380110924      9.61E-09 Convergence criterion met
 Total energy in the final basis set = -286.83801109
 Final energy is   -286.838011092412
 **  OPTIMIZATION CONVERGED  **

                    Orbital Energies (a.u.)
 --------------------------------------------------------------

 Alpha MOs
 -- Occupied --
-14.311 -10.237 -10.235 -10.200 -10.197 -10.197 -10.196  -0.953
 -0.766  -0.750  -0.717  -0.572  -0.567  -0.560  -0.516  -0.498
 -0.413  -0.406  -0.401  -0.387  -0.290  -0.289  -0.264  -0.249
 -0.237

 Beta MOs
 -- Occupied --
-14.314 -10.229 -10.227 -10.200 -10.197 -10.196 -10.195  -0.947
 -0.763  -0.750  -0.696  -0.572  -0.561  -0.549  -0.514  -0.498
 -0.409  -0.399  -0.381  -0.375  -0.290  -0.289  -0.265  -0.245

          Ground-State Mulliken Net Atomic Charges

     Atom                 Charge (a.u.)    Spin (a.u.)
  --------------------------------------------------------
      1 C                    -0.189163      -0.000246
      2 C                     0.046391       0.533367
      3 C                    -0.153325       0.084341
      4 C                    -0.151938       0.085726
      5 C                     0.055981       0.528621
      6 N                    -0.412809      -0.167164
      7 H                     0.191463       0.000013
      8 H                     0.164888      -0.026309
      9 H                     0.141610      -0.005944
     10 H                     0.142889      -0.006016
     11 H                     0.150275      -0.026540
     12 C                    -0.183748       0.000157
     13 H                     0.197486      -0.000006
  --------------------------------------------------------
  Sum of atomic charges =    -0.000000

                    Cartesian Multipole Moments
 -----------------------------------------------------------------
    Charge (ESU x 10^10)
                -0.0000
    Dipole Moment (Debye)
         X      -1.1295      Y      -0.3947      Z      -1.5355
       Tot       1.9466
    Quadrupole Moments (Debye-Ang)
        XX     -35.2675     XY       1.9408     YY     -40.8925
        XZ      -2.7109     YZ       2.2060     ZZ     -39.6797

 Total job time:  2765.43s(wall), 2698.25s(cpu)
        *  Thank you very much for using Q-Chem.  Have a nice day.  *
