 Q-Chem 5.0, Q-Chem, Inc., Pleasanton, CA (2017)
 Q-Chem 5.0.2 for Intel X86 EM64T Linux

User input:
--------------------------------------------------------------
$molecule
0 2
C        1.3518348802    0.6300180924   -0.8207201120
C       -0.0469536888   -1.1294359329    0.2554017478
C       -1.2669836185   -1.1471279889    0.8845487930
C       -1.7778327050    0.1879828857    0.8733815310
C       -0.8505976165    0.9745854136    0.2378035297
N        0.2130458096    0.1704271542   -0.1427021702
H        1.3223076348    1.7056819527   -1.0164330487
H        0.6663571469   -1.9129104959    0.0475368735
H       -1.7438704792   -2.0201679127    1.3097119443
H       -2.7185409356    0.5247103126    1.2866645691
H       -0.8405711559    2.0331380075    0.0187636744
C        2.3793635754   -0.0974870051   -1.2112937241
H        3.3124411527    0.0805855165   -1.7226636078
$end

$rem
method                b3lyp
basis                 6-31g(d)
unrestricted          true
symmetry              off
sym_ignore            true
incdft                false
incfock               0
scf_convergence       8
thresh                14
jobtype               opt
scf_guess             core
scf_guess_mix         5
scf_algorithm         diis
max_scf_cycles        100
geom_opt_max_cycles   300
$end

--------------------------------------------------------------

   24    -286.8723920416      2.49E-09 Convergence criterion met
 Total energy in the final basis set = -286.87239204
   16    -286.8723939999      3.25E-09 Convergence criterion met
 Total energy in the final basis set = -286.87239400

             Standard Nuclear Orientation (Angstroms)
    I     Atom           X                Y                Z
 ----------------------------------------------------------------
    1      C       1.3515648765     0.6314612414    -0.8213253580
    2      C      -0.0458246703    -1.1280152311     0.2543876568
    3      C      -1.2657314404    -1.1473013101     0.8840990440
    4      C      -1.7781154400     0.1874457416     0.8744607778
    5      C      -0.8513006032     0.9748044101     0.2392514389
    6      N       0.2130537145     0.1725028377    -0.1424922788
    7      H       1.3227203401     1.7063674855    -1.0187007866
    8      H       0.6684763266    -1.9106510542     0.0463175737
    9      H      -1.7432001299    -2.0207935005     1.3076811067
   10      H      -2.7193862038     0.5245265042     1.2873267263
   11      H      -0.8423165704     2.0328775389     0.0194116316
   12      C       2.3785382621    -0.0986651020    -1.2085288878
   13      H       3.3115215383     0.0754404382    -1.7218886445
 ----------------------------------------------------------------

   16    -286.8723944753      2.99E-09 Convergence criterion met
 Total energy in the final basis set = -286.87239448
 Final energy is   -286.872394475276
 **  OPTIMIZATION CONVERGED  **

                    Orbital Energies (a.u.)
 --------------------------------------------------------------

 Alpha MOs
 -- Occupied --
-14.392 -10.242 -10.214 -10.205 -10.201 -10.171 -10.170  -0.988
 -0.817  -0.737  -0.720  -0.618  -0.574  -0.544  -0.513  -0.476
 -0.428  -0.423  -0.416  -0.386  -0.374  -0.304  -0.255  -0.224
 -0.210

 Beta MOs
 -- Occupied --
-14.391 -10.243 -10.205 -10.201 -10.198 -10.171 -10.170  -0.987
 -0.812  -0.725  -0.717  -0.606  -0.573  -0.543  -0.500  -0.466
 -0.424  -0.424  -0.414  -0.385  -0.374  -0.301  -0.216  -0.211

          Ground-State Mulliken Net Atomic Charges

     Atom                 Charge (a.u.)    Spin (a.u.)
  --------------------------------------------------------
      1 C                     0.068348      -0.140440
      2 C                     0.037376       0.008943
      3 C                    -0.186818      -0.008658
      4 C                    -0.193206      -0.005401
      5 C                     0.027579      -0.002614
      6 N                    -0.401390       0.019447
      7 H                     0.163174       0.068791
      8 H                     0.154937       0.000527
      9 H                     0.128880       0.000825
     10 H                     0.128603       0.001018
     11 H                     0.144828       0.000097
     12 C                    -0.244535       1.062393
     13 H                     0.172223      -0.004927
  --------------------------------------------------------
  Sum of atomic charges =    -0.000000

                    Cartesian Multipole Moments
 -----------------------------------------------------------------
    Charge (ESU x 10^10)
                -0.0000
    Dipole Moment (Debye)
         X       0.8307      Y       0.9962      Z      -0.6230
       Tot       1.4390
    Quadrupole Moments (Debye-Ang)
        XX     -37.6082     XY       0.5343     YY     -36.3945
        XZ      -3.8280     YZ      -1.9918     ZZ     -42.5168

 Total job time:  143.52s(wall), 164.26s(cpu)
        *  Thank you very much for using Q-Chem.  Have a nice day.  *
