 Q-Chem 5.0, Q-Chem, Inc., Pleasanton, CA (2017)
 Q-Chem 5.0.2 for Intel X86 EM64T Linux

User input:
--------------------------------------------------------------
$molecule
0 2
C        1.9187621108    0.5428250285   -0.5117485323
C       -0.2356565301   -1.2446121241    0.0930099675
C       -1.2159664608   -1.1135978010    1.0351128371
C       -1.6722168456    0.2634168716    0.9598865097
C       -0.9296813479    0.8774946408   -0.0279643674
N       -0.1338100054   -0.0568262757   -0.6427920854
H        1.8729885900    0.5455424415    0.5569820007
H        0.3753551184   -2.0970920366   -0.1707580261
H       -1.6139748578   -1.8874754571    1.6795922443
H       -2.5069419264    0.6925324896    1.5017764411
H       -0.9915307493    1.8874814690   -0.4107901952
C        2.4763433309    0.6843363211   -1.5968691542
H        2.7349201258    0.7444377877   -2.6313320411
$end

$rem
method                b3lyp
basis                 6-31+g(d,p)
unrestricted          true
symmetry              off
sym_ignore            true
incdft                false
incfock               0
scf_convergence       8
thresh                14
jobtype               freq
scf_guess             read
scf_algorithm         diis
max_scf_cycles        100
$end

--------------------------------------------------------------

             Standard Nuclear Orientation (Angstroms)
    I     Atom           X                Y                Z
 ----------------------------------------------------------------
    1      C       1.9187621108     0.5428250285    -0.5117485323
    2      C      -0.2356565301    -1.2446121241     0.0930099675
    3      C      -1.2159664608    -1.1135978010     1.0351128371
    4      C      -1.6722168456     0.2634168716     0.9598865097
    5      C      -0.9296813479     0.8774946408    -0.0279643674
    6      N      -0.1338100054    -0.0568262757    -0.6427920854
    7      H       1.8729885900     0.5455424415     0.5569820007
    8      H       0.3753551184    -2.0970920366    -0.1707580261
    9      H      -1.6139748578    -1.8874754571     1.6795922443
   10      H      -2.5069419264     0.6925324896     1.5017764411
   11      H      -0.9915307493     1.8874814690    -0.4107901952
   12      C       2.4763433309     0.6843363211    -1.5968691542
   13      H       2.7349201258     0.7444377877    -2.6313320411
 ----------------------------------------------------------------

    2    -286.8302200636      8.28E-10 Convergence criterion met
 Total energy in the final basis set = -286.83022006

                    Orbital Energies (a.u.)
 --------------------------------------------------------------

 Alpha MOs
 -- Occupied --
-14.371 -10.234 -10.229 -10.208 -10.205 -10.200 -10.191  -0.960
 -0.786  -0.756  -0.720  -0.592  -0.566  -0.549  -0.520  -0.509
 -0.412  -0.412  -0.403  -0.383  -0.349  -0.313  -0.272  -0.245
 -0.224

 Beta MOs
 -- Occupied --
-14.360 -10.236 -10.223 -10.208 -10.206 -10.196 -10.190  -0.944
 -0.776  -0.742  -0.717  -0.586  -0.561  -0.546  -0.511  -0.505
 -0.408  -0.402  -0.389  -0.379  -0.327  -0.310  -0.251  -0.221

          Ground-State Mulliken Net Atomic Charges

     Atom                 Charge (a.u.)    Spin (a.u.)
  --------------------------------------------------------
      1 C                    -0.080864      -0.167146
      2 C                    -0.199127       0.008852
      3 C                    -0.076576       0.072228
      4 C                    -0.066636       0.259849
      5 C                    -0.184476      -0.106079
      6 N                    -0.184020       0.464224
      7 H                     0.202710       0.016853
      8 H                     0.132688       0.000426
      9 H                     0.129205      -0.002062
     10 H                     0.131063      -0.008797
     11 H                     0.130043       0.005042
     12 C                    -0.121339       0.474325
     13 H                     0.187331      -0.017716
  --------------------------------------------------------
  Sum of atomic charges =    -0.000000

                    Cartesian Multipole Moments
 -----------------------------------------------------------------
    Charge (ESU x 10^10)
                 0.0000
    Dipole Moment (Debye)
         X       0.9590      Y       0.3580      Z       0.1943
       Tot       1.0419
    Quadrupole Moments (Debye-Ang)
        XX     -39.4288     XY      -0.3796     YY     -40.2782
        XZ      -5.2954     YZ      -1.7599     ZZ     -38.6577

 Frequency:      -433.82                 -36.17                  74.00
 Force Cnst:      1.0107                 0.0019                 0.0145
 Red. Mass:       9.1148                 2.5240                 4.5087
 IR Intens:      185.737                  1.117                  2.360
 Frequency:       106.10                 191.82                 469.48
 Force Cnst:      0.0203                 0.0727                 0.4003
 Red. Mass:       3.0672                 3.3547                 3.0828
 IR Intens:        6.356                  1.172                 83.709
 Frequency:       560.15                 578.87                 624.44
 Force Cnst:      0.3112                 0.5633                 0.5187
 Red. Mass:       1.6834                 2.8533                 2.2579
 IR Intens:        6.959                  1.461                109.052
 Frequency:       631.05                 735.59                 753.57
 Force Cnst:      0.3900                 0.4122                 0.3695
 Red. Mass:       1.6622                 1.2928                 1.1042
 IR Intens:        0.824                191.352                 79.611
 Frequency:       804.93                 832.61                 857.42
 Force Cnst:      0.7391                 0.6609                 0.5516
 Red. Mass:       1.9360                 1.6182                 1.2734
 IR Intens:       46.109                  9.189                 54.313
 Frequency:       874.71                 882.06                 991.26
 Force Cnst:      0.8639                 0.6672                 0.9715
 Red. Mass:       1.9163                 1.4554                 1.6780
 IR Intens:        1.437                  0.100                  7.099
 Frequency:      1030.69                1084.10                1095.42
 Force Cnst:      1.7152                 1.7010                 1.2655
 Red. Mass:       2.7404                 2.4565                 1.7900
 IR Intens:        5.424                 50.341                 60.662
 Frequency:      1149.39                1290.55                1388.55
 Force Cnst:      1.2111                 1.2560                 3.3545
 Red. Mass:       1.5559                 1.2800                 2.9530
 IR Intens:        0.579                  1.799                108.859
 Frequency:      1434.47                1535.83                1912.41
 Force Cnst:      3.0969                 5.4412                 9.1678
 Red. Mass:       2.5544                 3.9152                 4.2546
 IR Intens:        3.082                 53.132                 85.020
 Frequency:      3227.20                3239.34                3256.25
 Force Cnst:      6.6766                 6.7401                 6.8638
 Red. Mass:       1.0881                 1.0902                 1.0987
 IR Intens:        2.370                  9.826                  7.361
 Frequency:      3264.20                3400.74                3479.59
 Force Cnst:      6.9393                 7.4192                 8.4266
 Red. Mass:       1.1054                 1.0888                 1.1813
 IR Intens:        2.111                 81.597                  5.561

 STANDARD THERMODYNAMIC QUANTITIES AT   298.15 K  AND     1.00 ATM

   This Molecule has  2 Imaginary Frequencies
   Zero point vibrational energy:       59.694 kcal/mol

   Atom    1 Element C  Has Mass   12.00000
   Atom    2 Element C  Has Mass   12.00000
   Atom    3 Element C  Has Mass   12.00000
   Atom    4 Element C  Has Mass   12.00000
   Atom    5 Element C  Has Mass   12.00000
   Atom    6 Element N  Has Mass   14.00307
   Atom    7 Element H  Has Mass    1.00783
   Atom    8 Element H  Has Mass    1.00783
   Atom    9 Element H  Has Mass    1.00783
   Atom   10 Element H  Has Mass    1.00783
   Atom   11 Element H  Has Mass    1.00783
   Atom   12 Element C  Has Mass   12.00000
   Atom   13 Element H  Has Mass    1.00783
   Molecular Mass:    92.050050 amu
   Principal axes and moments of inertia in amu*Bohr^2:
                             1           2           3
    Eigenvalues --      248.87718  1024.84550  1171.99845
          X               0.84192    -0.31140     0.44067
          Y               0.23676     0.94705     0.21690
          Z              -0.48488    -0.07828     0.87107
   Rotational Symmetry Number is   1
   The Molecule is an Asymmetric Top
   Translational Enthalpy:        0.889 kcal/mol
   Rotational Enthalpy:           0.889 kcal/mol
   Vibrational Enthalpy:         61.997 kcal/mol
   gas constant (RT):             0.592 kcal/mol
   Translational Entropy:        39.471  cal/mol.K
   Rotational Entropy:           27.194  cal/mol.K
   Vibrational Entropy:          13.958  cal/mol.K

   Total Enthalpy:               64.367 kcal/mol
   Total Entropy:                80.622  cal/mol.K

 Total job time:  595.59s(wall), 516.46s(cpu)
        *  Thank you very much for using Q-Chem.  Have a nice day.  *
