 Q-Chem 5.0, Q-Chem, Inc., Pleasanton, CA (2017)
 Q-Chem 5.0.2 for Intel X86 EM64T Linux

User input:
--------------------------------------------------------------
$molecule
0 2
C        2.0051621185    0.5073544991   -0.5444426369
C       -0.0996892517   -0.7712076080    0.0655414297
C       -1.1577504030   -1.0634244093    0.9066458936
C       -1.8993093100    0.1267048798    0.9786876914
C       -1.2340044725    1.1028286403    0.1941112242
N       -0.1291613985    0.5400732537   -0.4065803838
H        2.4817947157    0.5052730226    0.4329657871
H        0.6773600005   -1.4115996603   -0.3318980311
H       -1.2943777948   -1.9831544818    1.4530660312
H       -2.8799373799    0.2321927877    1.4374398270
H       -1.6933135363    2.0330683988   -0.1363576309
C        2.3760683497    0.1982447700   -1.6834015247
H        2.9257489149   -0.1778907375   -2.5316720779
$end

$rem
method                b3lyp
basis                 6-31g(d)
unrestricted          true
symmetry              off
sym_ignore            true
incdft                false
incfock               0
scf_convergence       8
thresh                14
jobtype               freq
scf_guess             read
scf_algorithm         diis
max_scf_cycles        100
$end

--------------------------------------------------------------

             Standard Nuclear Orientation (Angstroms)
    I     Atom           X                Y                Z
 ----------------------------------------------------------------
    1      C       2.0051621185     0.5073544991    -0.5444426369
    2      C      -0.0996892517    -0.7712076080     0.0655414297
    3      C      -1.1577504030    -1.0634244093     0.9066458936
    4      C      -1.8993093100     0.1267048798     0.9786876914
    5      C      -1.2340044725     1.1028286403     0.1941112242
    6      N      -0.1291613985     0.5400732537    -0.4065803838
    7      H       2.4817947157     0.5052730226     0.4329657871
    8      H       0.6773600005    -1.4115996603    -0.3318980311
    9      H      -1.2943777948    -1.9831544818     1.4530660312
   10      H      -2.8799373799     0.2321927877     1.4374398270
   11      H      -1.6933135363     2.0330683988    -0.1363576309
   12      C       2.3760683497     0.1982447700    -1.6834015247
   13      H       2.9257489149    -0.1778907375    -2.5316720779
 ----------------------------------------------------------------

    2    -286.7724293370      1.41E-09 Convergence criterion met
 Total energy in the final basis set = -286.77242934

                    Orbital Energies (a.u.)
 --------------------------------------------------------------

 Alpha MOs
 -- Occupied --
-14.335 -10.214 -10.210 -10.209 -10.199 -10.196 -10.170  -0.939
 -0.765  -0.745  -0.710  -0.567  -0.552  -0.548  -0.508  -0.478
 -0.403  -0.399  -0.384  -0.383  -0.328  -0.282  -0.242  -0.225
 -0.219

 Beta MOs
 -- Occupied --
-14.332 -10.211 -10.209 -10.208 -10.194 -10.192 -10.171  -0.930
 -0.757  -0.738  -0.698  -0.561  -0.547  -0.542  -0.503  -0.475
 -0.399  -0.391  -0.381  -0.368  -0.315  -0.278  -0.233  -0.201

          Ground-State Mulliken Net Atomic Charges

     Atom                 Charge (a.u.)    Spin (a.u.)
  --------------------------------------------------------
      1 C                    -0.210322      -0.157001
      2 C                     0.042602       0.343243
      3 C                    -0.158021      -0.116414
      4 C                    -0.154702       0.304266
      5 C                     0.020693       0.116861
      6 N                    -0.403741       0.134312
      7 H                     0.202001       0.013665
      8 H                     0.153892      -0.016065
      9 H                     0.129076       0.003169
     10 H                     0.139589      -0.012004
     11 H                     0.144343      -0.007920
     12 C                    -0.101326       0.414685
     13 H                     0.195916      -0.020798
  --------------------------------------------------------
  Sum of atomic charges =    -0.000000

                    Cartesian Multipole Moments
 -----------------------------------------------------------------
    Charge (ESU x 10^10)
                 0.0000
    Dipole Moment (Debye)
         X       0.7565      Y      -0.7963      Z       0.3956
       Tot       1.1674
    Quadrupole Moments (Debye-Ang)
        XX     -33.7332     XY      -2.8500     YY     -39.7467
        XZ      -3.4948     YZ       1.0042     ZZ     -38.7447

 Frequency:      -693.78                -107.14                 133.26
 Force Cnst:      1.8289                 0.0373                 0.0269
 Red. Mass:       6.4489                 5.5134                 2.5715
 IR Intens:     1850.016                 10.215                  0.949
 Frequency:       222.88                 282.97                 353.79
 Force Cnst:      0.0837                 0.1309                 0.2839
 Red. Mass:       2.8612                 2.7743                 3.8497
 IR Intens:       43.264                  6.245                 89.081
 Frequency:       530.53                 564.90                 628.40
 Force Cnst:      0.3126                 0.3702                 0.3864
 Red. Mass:       1.8849                 1.9691                 1.6609
 IR Intens:       25.688                 69.586                 10.636
 Frequency:       677.88                 719.26                 771.26
 Force Cnst:      0.4443                 0.3868                 0.4167
 Red. Mass:       1.6410                 1.2690                 1.1890
 IR Intens:      275.300                183.789                 62.185
 Frequency:       775.26                 834.77                 848.34
 Force Cnst:      0.4538                 0.9300                 0.9332
 Red. Mass:       1.2815                 2.2652                 2.2009
 IR Intens:       22.525                 17.466                 47.905
 Frequency:       868.29                 886.96                 996.41
 Force Cnst:      0.8964                 0.8026                 1.2547
 Red. Mass:       2.0180                 1.7316                 2.1449
 IR Intens:        6.695                  1.374                 96.708
 Frequency:      1029.54                1077.37                1102.65
 Force Cnst:      0.9000                 1.1528                 2.2815
 Red. Mass:       1.4411                 1.6856                 3.1849
 IR Intens:       10.666                  2.377                123.854
 Frequency:      1183.07                1314.32                1335.87
 Force Cnst:      2.0872                 1.3612                 2.1622
 Red. Mass:       2.5310                 1.3374                 2.0564
 IR Intens:       12.369                 39.999                142.997
 Frequency:      1439.96                1519.99                1858.07
 Force Cnst:      2.8900                 3.8582                 9.7130
 Red. Mass:       2.3657                 2.8343                 4.7750
 IR Intens:       48.239                 16.790                197.962
 Frequency:      3190.11                3208.74                3239.87
 Force Cnst:      6.5222                 6.6623                 6.7849
 Red. Mass:       1.0878                 1.0983                 1.0971
 IR Intens:       18.808                 13.800                 40.586
 Frequency:      3255.46                3296.71                3370.78
 Force Cnst:      6.8071                 7.0442                 7.7090
 Red. Mass:       1.0902                 1.1001                 1.1516
 IR Intens:       13.847                  7.559                 18.888

 STANDARD THERMODYNAMIC QUANTITIES AT   298.15 K  AND     1.00 ATM

   This Molecule has  2 Imaginary Frequencies
   Zero point vibrational energy:       59.352 kcal/mol

   Atom    1 Element C  Has Mass   12.00000
   Atom    2 Element C  Has Mass   12.00000
   Atom    3 Element C  Has Mass   12.00000
   Atom    4 Element C  Has Mass   12.00000
   Atom    5 Element C  Has Mass   12.00000
   Atom    6 Element N  Has Mass   14.00307
   Atom    7 Element H  Has Mass    1.00783
   Atom    8 Element H  Has Mass    1.00783
   Atom    9 Element H  Has Mass    1.00783
   Atom   10 Element H  Has Mass    1.00783
   Atom   11 Element H  Has Mass    1.00783
   Atom   12 Element C  Has Mass   12.00000
   Atom   13 Element H  Has Mass    1.00783
   Molecular Mass:    92.050050 amu
   Principal axes and moments of inertia in amu*Bohr^2:
                             1           2           3
    Eigenvalues --      231.22252  1045.45865  1204.63552
          X               0.87832    -0.20260     0.43303
          Y               0.08511     0.95756     0.27538
          Z              -0.47044    -0.20502     0.85828
   Rotational Symmetry Number is   1
   The Molecule is an Asymmetric Top
   Translational Enthalpy:        0.889 kcal/mol
   Rotational Enthalpy:           0.889 kcal/mol
   Vibrational Enthalpy:         61.454 kcal/mol
   gas constant (RT):             0.592 kcal/mol
   Translational Entropy:        39.471  cal/mol.K
   Rotational Entropy:           27.167  cal/mol.K
   Vibrational Entropy:          11.168  cal/mol.K

   Total Enthalpy:               63.824 kcal/mol
   Total Entropy:                77.806  cal/mol.K

 Total job time:  272.81s(wall), 242.26s(cpu)
        *  Thank you very much for using Q-Chem.  Have a nice day.  *
