 Q-Chem 5.0, Q-Chem, Inc., Pleasanton, CA (2017)
 Q-Chem 5.0.2 for Intel X86 EM64T Linux

User input:
--------------------------------------------------------------
$molecule
0 2
C        1.9304308238    0.5785316072   -0.5071669785
C       -0.2265269660   -1.2638351714    0.1050061038
C       -1.2311674632   -1.1192586859    1.0314720980
C       -1.6775557009    0.2625608459    0.9506173493
C       -0.9145986443    0.8666282435   -0.0196641453
N       -0.1094471289   -0.0887420914   -0.6232071728
H        1.8860588978    0.6115574857    0.5611552981
H        0.3587434918   -2.1340110841   -0.1570003886
H       -1.6611198259   -1.8982750616    1.6483693560
H       -2.5007915966    0.7048608634    1.4974220338
H       -0.9370826068    1.8814168017   -0.3912419445
C        2.4561613432    0.7008746000   -1.6119910271
H        2.7054859285    0.7361550021   -2.6496649837
$end

$rem
method                b3lyp
basis                 6-31+g(d,p)
unrestricted          true
symmetry              off
sym_ignore            true
incdft                false
incfock               0
scf_convergence       8
thresh                14
jobtype               freq
scf_guess             read
scf_algorithm         diis
max_scf_cycles        100
$end

--------------------------------------------------------------

             Standard Nuclear Orientation (Angstroms)
    I     Atom           X                Y                Z
 ----------------------------------------------------------------
    1      C       1.9304308238     0.5785316072    -0.5071669785
    2      C      -0.2265269660    -1.2638351714     0.1050061038
    3      C      -1.2311674632    -1.1192586859     1.0314720980
    4      C      -1.6775557009     0.2625608459     0.9506173493
    5      C      -0.9145986443     0.8666282435    -0.0196641453
    6      N      -0.1094471289    -0.0887420914    -0.6232071728
    7      H       1.8860588978     0.6115574857     0.5611552981
    8      H       0.3587434918    -2.1340110841    -0.1570003886
    9      H      -1.6611198259    -1.8982750616     1.6483693560
   10      H      -2.5007915966     0.7048608634     1.4974220338
   11      H      -0.9370826068     1.8814168017    -0.3912419445
   12      C       2.4561613432     0.7008746000    -1.6119910271
   13      H       2.7054859285     0.7361550021    -2.6496649837
 ----------------------------------------------------------------

    2    -286.8302989300      2.62E-09 Convergence criterion met
 Total energy in the final basis set = -286.83029893

                    Orbital Energies (a.u.)
 --------------------------------------------------------------

 Alpha MOs
 -- Occupied --
-14.372 -10.236 -10.231 -10.205 -10.205 -10.194 -10.194  -0.959
 -0.786  -0.755  -0.719  -0.594  -0.566  -0.548  -0.519  -0.510
 -0.412  -0.411  -0.402  -0.382  -0.349  -0.314  -0.271  -0.245
 -0.222

 Beta MOs
 -- Occupied --
-14.361 -10.238 -10.225 -10.206 -10.206 -10.192 -10.192  -0.943
 -0.776  -0.740  -0.717  -0.587  -0.560  -0.546  -0.511  -0.505
 -0.408  -0.400  -0.389  -0.378  -0.327  -0.311  -0.250  -0.220

          Ground-State Mulliken Net Atomic Charges

     Atom                 Charge (a.u.)    Spin (a.u.)
  --------------------------------------------------------
      1 C                    -0.085187      -0.168106
      2 C                    -0.198689      -0.061288
      3 C                    -0.072051       0.166583
      4 C                    -0.073939       0.165117
      5 C                    -0.195356      -0.060402
      6 N                    -0.176019       0.485163
      7 H                     0.203654       0.016521
      8 H                     0.131275       0.003577
      9 H                     0.129510      -0.004954
     10 H                     0.129549      -0.004910
     11 H                     0.131303       0.003554
     12 C                    -0.112644       0.477305
     13 H                     0.188594      -0.018160
  --------------------------------------------------------
  Sum of atomic charges =     0.000000

                    Cartesian Multipole Moments
 -----------------------------------------------------------------
    Charge (ESU x 10^10)
                 0.0000
    Dipole Moment (Debye)
         X       1.0784      Y       0.3623      Z       0.1104
       Tot       1.1430
    Quadrupole Moments (Debye-Ang)
        XX     -39.4794     XY      -0.1170     YY     -40.1497
        XZ      -5.2859     YZ      -1.7235     ZZ     -38.5918

 Frequency:      -409.14                  53.48                  65.19
 Force Cnst:      1.0228                 0.0054                 0.0055
 Red. Mass:      10.3700                 3.2020                 2.1966
 IR Intens:      120.456                  0.177                  2.231
 Frequency:        83.78                 194.54                 423.03
 Force Cnst:      0.0188                 0.0732                 0.3337
 Red. Mass:       4.5427                 3.2840                 3.1646
 IR Intens:        2.546                  0.931                 11.525
 Frequency:       551.00                 585.19                 624.58
 Force Cnst:      0.2896                 0.5887                 0.5382
 Red. Mass:       1.6192                 2.9176                 2.3416
 IR Intens:       16.369                  0.509                107.663
 Frequency:       627.38                 729.67                 752.96
 Force Cnst:      0.3908                 0.4017                 0.3685
 Red. Mass:       1.6852                 1.2806                 1.1032
 IR Intens:        2.835                207.339                 72.262
 Frequency:       811.63                 822.55                 847.69
 Force Cnst:      0.7291                 0.7272                 0.5347
 Red. Mass:       1.8784                 1.8243                 1.2628
 IR Intens:        5.322                  1.262                 68.684
 Frequency:       868.95                 877.75                 990.49
 Force Cnst:      0.7715                 0.6944                 0.9505
 Red. Mass:       1.7341                 1.5296                 1.6444
 IR Intens:        2.379                  0.045                  5.192
 Frequency:      1050.75                1070.95                1085.37
 Force Cnst:      2.5831                 2.1610                 0.8930
 Red. Mass:       3.9710                 3.1979                 1.2866
 IR Intens:        6.466                 54.622                 11.479
 Frequency:      1140.93                1286.77                1382.59
 Force Cnst:      1.2320                 1.2449                 3.2059
 Red. Mass:       1.6063                 1.2761                 2.8465
 IR Intens:        8.773                  0.444                118.348
 Frequency:      1444.85                1512.73                1904.97
 Force Cnst:      3.5369                 4.8712                 9.0976
 Red. Mass:       2.8756                 3.6130                 4.2550
 IR Intens:       20.047                  3.117                 84.786
 Frequency:      3233.49                3244.63                3264.96
 Force Cnst:      6.7027                 6.7675                 6.8948
 Red. Mass:       1.0881                 1.0911                 1.0978
 IR Intens:        2.444                  9.255                  6.003
 Frequency:      3270.35                3402.29                3481.65
 Force Cnst:      6.9622                 7.4273                 8.4336
 Red. Mass:       1.1049                 1.0890                 1.1808
 IR Intens:        2.147                 84.057                  5.998

 STANDARD THERMODYNAMIC QUANTITIES AT   298.15 K  AND     1.00 ATM

   This Molecule has  1 Imaginary Frequencies
   Zero point vibrational energy:       59.595 kcal/mol

   Atom    1 Element C  Has Mass   12.00000
   Atom    2 Element C  Has Mass   12.00000
   Atom    3 Element C  Has Mass   12.00000
   Atom    4 Element C  Has Mass   12.00000
   Atom    5 Element C  Has Mass   12.00000
   Atom    6 Element N  Has Mass   14.00307
   Atom    7 Element H  Has Mass    1.00783
   Atom    8 Element H  Has Mass    1.00783
   Atom    9 Element H  Has Mass    1.00783
   Atom   10 Element H  Has Mass    1.00783
   Atom   11 Element H  Has Mass    1.00783
   Atom   12 Element C  Has Mass   12.00000
   Atom   13 Element H  Has Mass    1.00783
   Molecular Mass:    92.050050 amu
   Principal axes and moments of inertia in amu*Bohr^2:
                             1           2           3
    Eigenvalues --      248.85847  1027.36907  1175.90237
          X               0.83924    -0.31036     0.44650
          Y               0.24635     0.94903     0.19663
          Z              -0.48477    -0.05502     0.87291
   Rotational Symmetry Number is   1
   The Molecule is an Asymmetric Top
   Translational Enthalpy:        0.889 kcal/mol
   Rotational Enthalpy:           0.889 kcal/mol
   Vibrational Enthalpy:         62.485 kcal/mol
   gas constant (RT):             0.592 kcal/mol
   Translational Entropy:        39.471  cal/mol.K
   Rotational Entropy:           27.199  cal/mol.K
   Vibrational Entropy:          19.507  cal/mol.K

   Total Enthalpy:               64.855 kcal/mol
   Total Entropy:                86.177  cal/mol.K

 Total job time:  575.19s(wall), 516.25s(cpu)
        *  Thank you very much for using Q-Chem.  Have a nice day.  *
