 Q-Chem 5.0, Q-Chem, Inc., Pleasanton, CA (2017)
 Q-Chem 5.0.2 for Intel X86 EM64T Linux

User input:
--------------------------------------------------------------
$molecule
0 2
C        2.0051621185    0.5073544991   -0.5444426369
C       -0.0996892517   -0.7712076080    0.0655414297
C       -1.1577504030   -1.0634244093    0.9066458936
C       -1.8993093100    0.1267048798    0.9786876914
C       -1.2340044725    1.1028286403    0.1941112242
N       -0.1291613985    0.5400732537   -0.4065803838
H        2.4817947157    0.5052730226    0.4329657871
H        0.6773600005   -1.4115996603   -0.3318980311
H       -1.2943777948   -1.9831544818    1.4530660312
H       -2.8799373799    0.2321927877    1.4374398270
H       -1.6933135363    2.0330683988   -0.1363576309
C        2.3760683497    0.1982447700   -1.6834015247
H        2.9257489149   -0.1778907375   -2.5316720779
$end

$rem
method                b3lyp
basis                 6-31g(d)
unrestricted          true
symmetry              off
sym_ignore            true
incdft                false
incfock               0
scf_convergence       8
thresh                14
jobtype               ts
scf_guess             read
scf_algorithm         diis
max_scf_cycles        100
geom_opt_max_cycles   500
geom_opt_dmax         100
geom_opt_tol_gradient 10
geom_opt_hessian      read
$end

--------------------------------------------------------------

    2    -286.7724293370      4.41E-10 Convergence criterion met
 Total energy in the final basis set = -286.77242934
   18    -286.7766162644      7.17E-09 Convergence criterion met
 Total energy in the final basis set = -286.77661626
   18    -286.7803893440      5.13E-09 Convergence criterion met
 Total energy in the final basis set = -286.78038934
   18    -286.7837500048      5.14E-09 Convergence criterion met
 Total energy in the final basis set = -286.78375000
   18    -286.7867580767      4.52E-09 Convergence criterion met
 Total energy in the final basis set = -286.78675808
   17    -286.7894527656      7.06E-09 Convergence criterion met
 Total energy in the final basis set = -286.78945277
   17    -286.7918577704      5.56E-09 Convergence criterion met
 Total energy in the final basis set = -286.79185777
   16    -286.7933784024      9.17E-09 Convergence criterion met
   10    -286.8044062788      3.60E-09 Convergence criterion met
 Total energy in the final basis set = -286.80440628
    8    -286.8044062793      8.20E-09 Convergence criterion met
 Total energy in the final basis set = -286.80440628
    9    -286.8044062795      9.81E-09 Convergence criterion met
 Total energy in the final basis set = -286.80440628
    9    -286.8044062794      7.16E-09 Convergence criterion met
 Total energy in the final basis set = -286.80440628
   11    -286.8044062785      7.43E-09 Convergence criterion met
 Total energy in the final basis set = -286.80440628
   11    -286.8044062761      6.99E-09 Convergence criterion met
 Total energy in the final basis set = -286.80440628

             Standard Nuclear Orientation (Angstroms)
    I     Atom           X                Y                Z
 ----------------------------------------------------------------
    1      C       1.9187621108     0.5428250285    -0.5117485323
    2      C      -0.2356565301    -1.2446121241     0.0930099675
    3      C      -1.2159664608    -1.1135978010     1.0351128371
    4      C      -1.6722168456     0.2634168716     0.9598865097
    5      C      -0.9296813479     0.8774946408    -0.0279643674
    6      N      -0.1338100054    -0.0568262757    -0.6427920854
    7      H       1.8729885900     0.5455424415     0.5569820007
    8      H       0.3753551184    -2.0970920366    -0.1707580261
    9      H      -1.6139748578    -1.8874754571     1.6795922443
   10      H      -2.5069419264     0.6925324896     1.5017764411
   11      H      -0.9915307493     1.8874814690    -0.4107901952
   12      C       2.4763433309     0.6843363211    -1.5968691542
   13      H       2.7349201258     0.7444377877    -2.6313320411
 ----------------------------------------------------------------

   10    -286.8044062816      9.52E-09 Convergence criterion met
 Total energy in the final basis set = -286.80440628
 Final energy is   -286.804406281557
 **  OPTIMIZATION CONVERGED  **

                    Orbital Energies (a.u.)
 --------------------------------------------------------------

 Alpha MOs
 -- Occupied --
-14.356 -10.222 -10.216 -10.195 -10.191 -10.187 -10.178  -0.945
 -0.772  -0.743  -0.707  -0.584  -0.555  -0.539  -0.509  -0.499
 -0.401  -0.399  -0.393  -0.372  -0.336  -0.300  -0.258  -0.231
 -0.210

 Beta MOs
 -- Occupied --
-14.345 -10.224 -10.210 -10.195 -10.193 -10.184 -10.177  -0.930
 -0.762  -0.729  -0.705  -0.577  -0.550  -0.536  -0.501  -0.495
 -0.397  -0.391  -0.377  -0.367  -0.314  -0.297  -0.237  -0.207

          Ground-State Mulliken Net Atomic Charges

     Atom                 Charge (a.u.)    Spin (a.u.)
  --------------------------------------------------------
      1 C                    -0.142674      -0.178164
      2 C                    -0.008810       0.004209
      3 C                    -0.151996       0.077852
      4 C                    -0.149216       0.258761
      5 C                    -0.003724      -0.109382
      6 N                    -0.367184       0.484998
      7 H                     0.219881       0.016758
      8 H                     0.137857       0.000170
      9 H                     0.130895      -0.002171
     10 H                     0.134202      -0.009248
     11 H                     0.135730       0.005085
     12 C                    -0.136278       0.471106
     13 H                     0.201317      -0.019974
  --------------------------------------------------------
  Sum of atomic charges =    -0.000000

                    Cartesian Multipole Moments
 -----------------------------------------------------------------
    Charge (ESU x 10^10)
                -0.0000
    Dipole Moment (Debye)
         X       1.0822      Y       0.3824      Z       0.2353
       Tot       1.1716
    Quadrupole Moments (Debye-Ang)
        XX     -37.4413     XY      -0.1914     YY     -38.7015
        XZ      -4.8519     YZ      -1.5915     ZZ     -37.1702

 Total job time:  7352.09s(wall), 10864.12s(cpu)
        *  Thank you very much for using Q-Chem.  Have a nice day.  *
