 Q-Chem 5.0, Q-Chem, Inc., Pleasanton, CA (2017)
 Q-Chem 5.0.2 for Intel X86 EM64T Linux

User input:
--------------------------------------------------------------
$molecule
0 2
C        2.0051621185    0.5073544991   -0.5444426369
C       -0.0996892517   -0.7712076080    0.0655414297
C       -1.1577504030   -1.0634244093    0.9066458936
C       -1.8993093100    0.1267048798    0.9786876914
C       -1.2340044725    1.1028286403    0.1941112242
N       -0.1291613985    0.5400732537   -0.4065803838
H        2.4817947157    0.5052730226    0.4329657871
H        0.6773600005   -1.4115996603   -0.3318980311
H       -1.2943777948   -1.9831544818    1.4530660312
H       -2.8799373799    0.2321927877    1.4374398270
H       -1.6933135363    2.0330683988   -0.1363576309
C        2.3760683497    0.1982447700   -1.6834015247
H        2.9257489149   -0.1778907375   -2.5316720779
$end

$rem
method                b3lyp
basis                 6-31g(d)
unrestricted          true
symmetry              off
sym_ignore            true
incdft                false
incfock               0
scf_convergence       8
thresh                14
jobtype               sp
scf_guess             core
scf_guess_mix         5
scf_algorithm         diis
max_scf_cycles        100
$end

--------------------------------------------------------------

             Standard Nuclear Orientation (Angstroms)
    I     Atom           X                Y                Z
 ----------------------------------------------------------------
    1      C       2.0051621185     0.5073544991    -0.5444426369
    2      C      -0.0996892517    -0.7712076080     0.0655414297
    3      C      -1.1577504030    -1.0634244093     0.9066458936
    4      C      -1.8993093100     0.1267048798     0.9786876914
    5      C      -1.2340044725     1.1028286403     0.1941112242
    6      N      -0.1291613985     0.5400732537    -0.4065803838
    7      H       2.4817947157     0.5052730226     0.4329657871
    8      H       0.6773600005    -1.4115996603    -0.3318980311
    9      H      -1.2943777948    -1.9831544818     1.4530660312
   10      H      -2.8799373799     0.2321927877     1.4374398270
   11      H      -1.6933135363     2.0330683988    -0.1363576309
   12      C       2.3760683497     0.1982447700    -1.6834015247
   13      H       2.9257489149    -0.1778907375    -2.5316720779
 ----------------------------------------------------------------

   26    -286.7724293370      8.37E-09 Convergence criterion met
 Total energy in the final basis set = -286.77242934

                    Orbital Energies (a.u.)
 --------------------------------------------------------------

 Alpha MOs
 -- Occupied --
-14.335 -10.214 -10.210 -10.209 -10.199 -10.196 -10.170  -0.939
 -0.765  -0.745  -0.710  -0.567  -0.552  -0.548  -0.508  -0.478
 -0.403  -0.399  -0.384  -0.383  -0.328  -0.282  -0.242  -0.225
 -0.219

 Beta MOs
 -- Occupied --
-14.332 -10.211 -10.209 -10.208 -10.194 -10.192 -10.171  -0.930
 -0.757  -0.738  -0.698  -0.561  -0.547  -0.542  -0.503  -0.475
 -0.399  -0.391  -0.381  -0.368  -0.315  -0.278  -0.233  -0.201

          Ground-State Mulliken Net Atomic Charges

     Atom                 Charge (a.u.)    Spin (a.u.)
  --------------------------------------------------------
      1 C                    -0.210322      -0.156999
      2 C                     0.042602       0.343244
      3 C                    -0.158021      -0.116415
      4 C                    -0.154702       0.304268
      5 C                     0.020693       0.116861
      6 N                    -0.403741       0.134311
      7 H                     0.202001       0.013665
      8 H                     0.153892      -0.016065
      9 H                     0.129076       0.003170
     10 H                     0.139589      -0.012004
     11 H                     0.144343      -0.007920
     12 C                    -0.101326       0.414682
     13 H                     0.195916      -0.020798
  --------------------------------------------------------
  Sum of atomic charges =    -0.000000

                    Cartesian Multipole Moments
 -----------------------------------------------------------------
    Charge (ESU x 10^10)
                 0.0000
    Dipole Moment (Debye)
         X       0.7565      Y      -0.7963      Z       0.3956
       Tot       1.1674
    Quadrupole Moments (Debye-Ang)
        XX     -33.7332     XY      -2.8500     YY     -39.7467
        XZ      -3.4948     YZ       1.0042     ZZ     -38.7447

 Total job time:  51.15s(wall), 65.03s(cpu)
        *  Thank you very much for using Q-Chem.  Have a nice day.  *
