 Q-Chem 5.0, Q-Chem, Inc., Pleasanton, CA (2017)
 Q-Chem 5.0.2 for Intel X86 EM64T Linux

User input:
--------------------------------------------------------------
$molecule
0 2
C        1.9304308238    0.5785316072   -0.5071669785
C       -0.2265269660   -1.2638351714    0.1050061038
C       -1.2311674632   -1.1192586859    1.0314720980
C       -1.6775557009    0.2625608459    0.9506173493
C       -0.9145986443    0.8666282435   -0.0196641453
N       -0.1094471289   -0.0887420914   -0.6232071728
H        1.8860588978    0.6115574857    0.5611552981
H        0.3587434918   -2.1340110841   -0.1570003886
H       -1.6611198259   -1.8982750616    1.6483693560
H       -2.5007915966    0.7048608634    1.4974220338
H       -0.9370826068    1.8814168017   -0.3912419445
C        2.4561613432    0.7008746000   -1.6119910271
H        2.7054859285    0.7361550021   -2.6496649837
$end

$rem
method                b3lyp
basis                 6-31+g(d,p)
unrestricted          true
symmetry              off
sym_ignore            true
incdft                false
incfock               0
scf_convergence       8
thresh                14
jobtype               sp
scf_guess             read
scf_algorithm         diis
max_scf_cycles        100
$end

--------------------------------------------------------------

             Standard Nuclear Orientation (Angstroms)
    I     Atom           X                Y                Z
 ----------------------------------------------------------------
    1      C       1.9304308238     0.5785316072    -0.5071669785
    2      C      -0.2265269660    -1.2638351714     0.1050061038
    3      C      -1.2311674632    -1.1192586859     1.0314720980
    4      C      -1.6775557009     0.2625608459     0.9506173493
    5      C      -0.9145986443     0.8666282435    -0.0196641453
    6      N      -0.1094471289    -0.0887420914    -0.6232071728
    7      H       1.8860588978     0.6115574857     0.5611552981
    8      H       0.3587434918    -2.1340110841    -0.1570003886
    9      H      -1.6611198259    -1.8982750616     1.6483693560
   10      H      -2.5007915966     0.7048608634     1.4974220338
   11      H      -0.9370826068     1.8814168017    -0.3912419445
   12      C       2.4561613432     0.7008746000    -1.6119910271
   13      H       2.7054859285     0.7361550021    -2.6496649837
 ----------------------------------------------------------------

    2    -286.8302989300      5.32E-09 Convergence criterion met
 Total energy in the final basis set = -286.83029893

                    Orbital Energies (a.u.)
 --------------------------------------------------------------

 Alpha MOs
 -- Occupied --
-14.372 -10.236 -10.231 -10.205 -10.205 -10.194 -10.194  -0.959
 -0.786  -0.755  -0.719  -0.594  -0.566  -0.548  -0.519  -0.510
 -0.412  -0.411  -0.402  -0.382  -0.349  -0.314  -0.271  -0.245
 -0.222

 Beta MOs
 -- Occupied --
-14.361 -10.238 -10.225 -10.206 -10.206 -10.192 -10.192  -0.943
 -0.776  -0.740  -0.717  -0.587  -0.560  -0.546  -0.511  -0.505
 -0.408  -0.400  -0.389  -0.378  -0.327  -0.311  -0.250  -0.220

          Ground-State Mulliken Net Atomic Charges

     Atom                 Charge (a.u.)    Spin (a.u.)
  --------------------------------------------------------
      1 C                    -0.085187      -0.168107
      2 C                    -0.198689      -0.061284
      3 C                    -0.072051       0.166579
      4 C                    -0.073939       0.165120
      5 C                    -0.195356      -0.060404
      6 N                    -0.176019       0.485162
      7 H                     0.203654       0.016521
      8 H                     0.131275       0.003577
      9 H                     0.129510      -0.004954
     10 H                     0.129549      -0.004910
     11 H                     0.131303       0.003554
     12 C                    -0.112644       0.477306
     13 H                     0.188594      -0.018161
  --------------------------------------------------------
  Sum of atomic charges =     0.000000

                    Cartesian Multipole Moments
 -----------------------------------------------------------------
    Charge (ESU x 10^10)
                 0.0000
    Dipole Moment (Debye)
         X       1.0784      Y       0.3623      Z       0.1104
       Tot       1.1430
    Quadrupole Moments (Debye-Ang)
        XX     -39.4794     XY      -0.1170     YY     -40.1497
        XZ      -5.2859     YZ      -1.7235     ZZ     -38.5918

 Total job time:  15.84s(wall), 11.42s(cpu)
        *  Thank you very much for using Q-Chem.  Have a nice day.  *
