 Q-Chem 5.0, Q-Chem, Inc., Pleasanton, CA (2017)
 Q-Chem 5.0.2 for Intel X86 EM64T Linux

User input:
--------------------------------------------------------------
$molecule
0 2
C        1.9187621108    0.5428250285   -0.5117485323
C       -0.2356565301   -1.2446121241    0.0930099675
C       -1.2159664608   -1.1135978010    1.0351128371
C       -1.6722168456    0.2634168716    0.9598865097
C       -0.9296813479    0.8774946408   -0.0279643674
N       -0.1338100054   -0.0568262757   -0.6427920854
H        1.8729885900    0.5455424415    0.5569820007
H        0.3753551184   -2.0970920366   -0.1707580261
H       -1.6139748578   -1.8874754571    1.6795922443
H       -2.5069419264    0.6925324896    1.5017764411
H       -0.9915307493    1.8874814690   -0.4107901952
C        2.4763433309    0.6843363211   -1.5968691542
H        2.7349201258    0.7444377877   -2.6313320411
$end

$rem
method                b3lyp
basis                 6-31+g(d,p)
unrestricted          true
symmetry              off
sym_ignore            true
incdft                false
incfock               0
scf_convergence       8
thresh                14
jobtype               sp
scf_guess             core
scf_guess_mix         5
scf_algorithm         diis
max_scf_cycles        100
$end

--------------------------------------------------------------

             Standard Nuclear Orientation (Angstroms)
    I     Atom           X                Y                Z
 ----------------------------------------------------------------
    1      C       1.9187621108     0.5428250285    -0.5117485323
    2      C      -0.2356565301    -1.2446121241     0.0930099675
    3      C      -1.2159664608    -1.1135978010     1.0351128371
    4      C      -1.6722168456     0.2634168716     0.9598865097
    5      C      -0.9296813479     0.8774946408    -0.0279643674
    6      N      -0.1338100054    -0.0568262757    -0.6427920854
    7      H       1.8729885900     0.5455424415     0.5569820007
    8      H       0.3753551184    -2.0970920366    -0.1707580261
    9      H      -1.6139748578    -1.8874754571     1.6795922443
   10      H      -2.5069419264     0.6925324896     1.5017764411
   11      H      -0.9915307493     1.8874814690    -0.4107901952
   12      C       2.4763433309     0.6843363211    -1.5968691542
   13      H       2.7349201258     0.7444377877    -2.6313320411
 ----------------------------------------------------------------

   26    -286.8302200636      4.07E-09 Convergence criterion met
 Total energy in the final basis set = -286.83022006

                    Orbital Energies (a.u.)
 --------------------------------------------------------------

 Alpha MOs
 -- Occupied --
-14.371 -10.234 -10.229 -10.208 -10.205 -10.200 -10.191  -0.960
 -0.786  -0.756  -0.720  -0.592  -0.566  -0.549  -0.520  -0.509
 -0.412  -0.412  -0.403  -0.383  -0.349  -0.313  -0.272  -0.245
 -0.224

 Beta MOs
 -- Occupied --
-14.360 -10.236 -10.223 -10.208 -10.206 -10.196 -10.190  -0.944
 -0.776  -0.742  -0.717  -0.586  -0.561  -0.546  -0.511  -0.505
 -0.408  -0.402  -0.389  -0.379  -0.327  -0.310  -0.251  -0.221

          Ground-State Mulliken Net Atomic Charges

     Atom                 Charge (a.u.)    Spin (a.u.)
  --------------------------------------------------------
      1 C                    -0.080864      -0.167150
      2 C                    -0.199127       0.008851
      3 C                    -0.076576       0.072229
      4 C                    -0.066636       0.259847
      5 C                    -0.184476      -0.106076
      6 N                    -0.184020       0.464223
      7 H                     0.202710       0.016854
      8 H                     0.132688       0.000426
      9 H                     0.129205      -0.002062
     10 H                     0.131063      -0.008796
     11 H                     0.130043       0.005042
     12 C                    -0.121339       0.474330
     13 H                     0.187331      -0.017716
  --------------------------------------------------------
  Sum of atomic charges =    -0.000000

                    Cartesian Multipole Moments
 -----------------------------------------------------------------
    Charge (ESU x 10^10)
                 0.0000
    Dipole Moment (Debye)
         X       0.9590      Y       0.3580      Z       0.1943
       Tot       1.0419
    Quadrupole Moments (Debye-Ang)
        XX     -39.4288     XY      -0.3796     YY     -40.2782
        XZ      -5.2954     YZ      -1.7599     ZZ     -38.6577

 Total job time:  68.32s(wall), 125.13s(cpu)
        *  Thank you very much for using Q-Chem.  Have a nice day.  *
