 Q-Chem 5.0, Q-Chem, Inc., Pleasanton, CA (2017)
 Q-Chem 5.0.2 for Intel X86 EM64T Linux

User input:
--------------------------------------------------------------
$molecule
0 2
C        1.9187621108    0.5428250285   -0.5117485323
C       -0.2356565301   -1.2446121241    0.0930099675
C       -1.2159664608   -1.1135978010    1.0351128371
C       -1.6722168456    0.2634168716    0.9598865097
C       -0.9296813479    0.8774946408   -0.0279643674
N       -0.1338100054   -0.0568262757   -0.6427920854
H        1.8729885900    0.5455424415    0.5569820007
H        0.3753551184   -2.0970920366   -0.1707580261
H       -1.6139748578   -1.8874754571    1.6795922443
H       -2.5069419264    0.6925324896    1.5017764411
H       -0.9915307493    1.8874814690   -0.4107901952
C        2.4763433309    0.6843363211   -1.5968691542
H        2.7349201258    0.7444377877   -2.6313320411
$end

$rem
method                b3lyp
basis                 6-31+g(d,p)
unrestricted          true
symmetry              off
sym_ignore            true
incdft                false
incfock               0
scf_convergence       8
thresh                14
jobtype               ts
scf_guess             read
scf_algorithm         diis
max_scf_cycles        100
geom_opt_max_cycles   500
geom_opt_dmax         100
geom_opt_tol_gradient 10
geom_opt_hessian      read
$end

--------------------------------------------------------------

    2    -286.8302200636      2.96E-10 Convergence criterion met
 Total energy in the final basis set = -286.83022006
   15    -286.8302138698      3.95E-09 Convergence criterion met
 Total energy in the final basis set = -286.83021387
   17    -286.8302887239      7.57E-09 Convergence criterion met
 Total energy in the final basis set = -286.83028872
   15    -286.8302955169      6.08E-09 Convergence criterion met
 Total energy in the final basis set = -286.83029552
   15    -286.8302976691      8.06E-09 Convergence criterion met
 Total energy in the final basis set = -286.83029767
   13    -286.8302984733      9.82E-09 Convergence criterion met
 Total energy in the final basis set = -286.83029847
   13    -286.8302987097      7.14E-09 Convergence criterion met
 Total energy in the final basis set = -286.83029871
   13    -286.8302988855      6.86E-09 Convergence criterion met
 Total energy in the final basis set = -286.83029889
   13    -286.8302989242      6.67E-09 Convergence criterion met
 Total energy in the final basis set = -286.83029892
   11    -286.8302989296      8.17E-09 Convergence criterion met
 Total energy in the final basis set = -286.83029893

             Standard Nuclear Orientation (Angstroms)
    I     Atom           X                Y                Z
 ----------------------------------------------------------------
    1      C       1.9304308238     0.5785316072    -0.5071669785
    2      C      -0.2265269660    -1.2638351714     0.1050061038
    3      C      -1.2311674632    -1.1192586859     1.0314720980
    4      C      -1.6775557009     0.2625608459     0.9506173493
    5      C      -0.9145986443     0.8666282435    -0.0196641453
    6      N      -0.1094471289    -0.0887420914    -0.6232071728
    7      H       1.8860588978     0.6115574857     0.5611552981
    8      H       0.3587434918    -2.1340110841    -0.1570003886
    9      H      -1.6611198259    -1.8982750616     1.6483693560
   10      H      -2.5007915966     0.7048608634     1.4974220338
   11      H      -0.9370826068     1.8814168017    -0.3912419445
   12      C       2.4561613432     0.7008746000    -1.6119910271
   13      H       2.7054859285     0.7361550021    -2.6496649837
 ----------------------------------------------------------------

   11    -286.8302989300      8.58E-09 Convergence criterion met
 Total energy in the final basis set = -286.83029893
 Final energy is   -286.830298930021
 **  OPTIMIZATION CONVERGED  **

                    Orbital Energies (a.u.)
 --------------------------------------------------------------

 Alpha MOs
 -- Occupied --
-14.372 -10.236 -10.231 -10.205 -10.205 -10.194 -10.194  -0.959
 -0.786  -0.755  -0.719  -0.594  -0.566  -0.548  -0.519  -0.510
 -0.412  -0.411  -0.402  -0.382  -0.349  -0.314  -0.271  -0.245
 -0.222

 Beta MOs
 -- Occupied --
-14.361 -10.238 -10.225 -10.206 -10.206 -10.192 -10.192  -0.943
 -0.776  -0.740  -0.717  -0.587  -0.560  -0.546  -0.511  -0.505
 -0.408  -0.400  -0.389  -0.378  -0.327  -0.311  -0.250  -0.220

          Ground-State Mulliken Net Atomic Charges

     Atom                 Charge (a.u.)    Spin (a.u.)
  --------------------------------------------------------
      1 C                    -0.085187      -0.168109
      2 C                    -0.198689      -0.061281
      3 C                    -0.072051       0.166575
      4 C                    -0.073939       0.165122
      5 C                    -0.195356      -0.060406
      6 N                    -0.176019       0.485162
      7 H                     0.203655       0.016521
      8 H                     0.131275       0.003577
      9 H                     0.129510      -0.004954
     10 H                     0.129549      -0.004911
     11 H                     0.131303       0.003555
     12 C                    -0.112644       0.477309
     13 H                     0.188594      -0.018161
  --------------------------------------------------------
  Sum of atomic charges =     0.000000

                    Cartesian Multipole Moments
 -----------------------------------------------------------------
    Charge (ESU x 10^10)
                 0.0000
    Dipole Moment (Debye)
         X       1.0784      Y       0.3623      Z       0.1104
       Tot       1.1430
    Quadrupole Moments (Debye-Ang)
        XX     -39.4794     XY      -0.1170     YY     -40.1497
        XZ      -5.2859     YZ      -1.7235     ZZ     -38.5918

 Total job time:  392.06s(wall), 839.68s(cpu)
        *  Thank you very much for using Q-Chem.  Have a nice day.  *
