 Q-Chem 5.0, Q-Chem, Inc., Pleasanton, CA (2017)
 Q-Chem 5.0.2 for Intel X86 EM64T Linux

User input:
--------------------------------------------------------------
$molecule
0 2
C        1.9187621108    0.5428250285   -0.5117485323
C       -0.2356565301   -1.2446121241    0.0930099675
C       -1.2159664608   -1.1135978010    1.0351128371
C       -1.6722168456    0.2634168716    0.9598865097
C       -0.9296813479    0.8774946408   -0.0279643674
N       -0.1338100054   -0.0568262757   -0.6427920854
H        1.8729885900    0.5455424415    0.5569820007
H        0.3753551184   -2.0970920366   -0.1707580261
H       -1.6139748578   -1.8874754571    1.6795922443
H       -2.5069419264    0.6925324896    1.5017764411
H       -0.9915307493    1.8874814690   -0.4107901952
C        2.4763433309    0.6843363211   -1.5968691542
H        2.7349201258    0.7444377877   -2.6313320411
$end

$rem
method                b3lyp
basis                 6-31g(d)
unrestricted          true
symmetry              off
sym_ignore            true
incdft                false
incfock               0
scf_convergence       8
thresh                14
jobtype               sp
scf_guess             read
scf_algorithm         diis
max_scf_cycles        100
$end

--------------------------------------------------------------

             Standard Nuclear Orientation (Angstroms)
    I     Atom           X                Y                Z
 ----------------------------------------------------------------
    1      C       1.9187621108     0.5428250285    -0.5117485323
    2      C      -0.2356565301    -1.2446121241     0.0930099675
    3      C      -1.2159664608    -1.1135978010     1.0351128371
    4      C      -1.6722168456     0.2634168716     0.9598865097
    5      C      -0.9296813479     0.8774946408    -0.0279643674
    6      N      -0.1338100054    -0.0568262757    -0.6427920854
    7      H       1.8729885900     0.5455424415     0.5569820007
    8      H       0.3753551184    -2.0970920366    -0.1707580261
    9      H      -1.6139748578    -1.8874754571     1.6795922443
   10      H      -2.5069419264     0.6925324896     1.5017764411
   11      H      -0.9915307493     1.8874814690    -0.4107901952
   12      C       2.4763433309     0.6843363211    -1.5968691542
   13      H       2.7349201258     0.7444377877    -2.6313320411
 ----------------------------------------------------------------

    2    -286.8044062816      5.60E-09 Convergence criterion met
 Total energy in the final basis set = -286.80440628

                    Orbital Energies (a.u.)
 --------------------------------------------------------------

 Alpha MOs
 -- Occupied --
-14.356 -10.222 -10.216 -10.195 -10.191 -10.187 -10.178  -0.945
 -0.772  -0.743  -0.707  -0.584  -0.555  -0.539  -0.509  -0.499
 -0.401  -0.399  -0.393  -0.372  -0.336  -0.300  -0.258  -0.231
 -0.210

 Beta MOs
 -- Occupied --
-14.345 -10.224 -10.210 -10.195 -10.193 -10.184 -10.177  -0.930
 -0.762  -0.729  -0.705  -0.577  -0.550  -0.536  -0.501  -0.495
 -0.397  -0.391  -0.377  -0.367  -0.314  -0.297  -0.237  -0.207

          Ground-State Mulliken Net Atomic Charges

     Atom                 Charge (a.u.)    Spin (a.u.)
  --------------------------------------------------------
      1 C                    -0.142674      -0.178164
      2 C                    -0.008809       0.004211
      3 C                    -0.151996       0.077850
      4 C                    -0.149215       0.258762
      5 C                    -0.003724      -0.109383
      6 N                    -0.367185       0.484998
      7 H                     0.219881       0.016758
      8 H                     0.137857       0.000170
      9 H                     0.130895      -0.002171
     10 H                     0.134202      -0.009248
     11 H                     0.135730       0.005085
     12 C                    -0.136278       0.471106
     13 H                     0.201317      -0.019974
  --------------------------------------------------------
  Sum of atomic charges =     0.000000

                    Cartesian Multipole Moments
 -----------------------------------------------------------------
    Charge (ESU x 10^10)
                -0.0000
    Dipole Moment (Debye)
         X       1.0822      Y       0.3824      Z       0.2353
       Tot       1.1716
    Quadrupole Moments (Debye-Ang)
        XX     -37.4413     XY      -0.1914     YY     -38.7015
        XZ      -4.8519     YZ      -1.5915     ZZ     -37.1703

 Total job time:  6.59s(wall), 6.61s(cpu)
        *  Thank you very much for using Q-Chem.  Have a nice day.  *
