 Q-Chem 5.0, Q-Chem, Inc., Pleasanton, CA (2017)
 Q-Chem 5.0.2 for Intel X86 EM64T Linux

User input:
--------------------------------------------------------------
$molecule
0 2
C        0.6455232724   -0.6307381018   -0.1578628102
C        2.1508691917   -0.6164544241   -0.0659897120
C        1.6140500978   -1.7879296993   -0.1723049311
C       -1.8195522293    1.1302946111   -0.0187399738
C       -1.1651661912    0.3077349072    1.0464160902
N       -0.1185780605   -0.4222655639    1.0324703093
H        0.1627977157   -0.3273151687   -1.0921254974
H        3.0149516643    0.0186619170    0.0653946067
H        1.6969695952   -2.8638913167   -0.2042568870
H       -2.8840797087    1.2945177200    0.1714752514
H       -1.7040315566    0.3526681359    1.9989322650
C       -1.2834849863    1.7103654072   -1.0743443976
H       -0.3102688045    1.8343515761   -1.5290643137
$end

$rem
method                b3lyp
basis                 6-31g(d)
unrestricted          true
symmetry              off
sym_ignore            true
incdft                false
incfock               0
scf_convergence       8
thresh                14
jobtype               opt
scf_guess             read
scf_algorithm         diis
max_scf_cycles        100
geom_opt_tol_gradient 600
geom_opt_tol_displacement 2400
geom_opt_tol_energy   200
geom_opt_max_cycles   100
$end

--------------------------------------------------------------

    2    -286.7674702274      2.34E-09 Convergence criterion met
 Total energy in the final basis set = -286.76747023
   12    -286.7674786720      9.19E-09 Convergence criterion met
 Total energy in the final basis set = -286.76747867
   13    -286.7674816576      2.50E-09 Convergence criterion met
 Total energy in the final basis set = -286.76748166

             Standard Nuclear Orientation (Angstroms)
    I     Atom           X                Y                Z
 ----------------------------------------------------------------
    1      C       0.6335296547    -0.6453623341    -0.1625915302
    2      C       2.1381711132    -0.6022308575    -0.0712531173
    3      C       1.6226765852    -1.7839714581    -0.1699818912
    4      C      -1.8124898314     1.1431422750    -0.0128803432
    5      C      -1.1721890335     0.2995836303     1.0448586197
    6      N      -0.1327393405    -0.4407857631     1.0275122236
    7      H       0.1451951949    -0.3590496196    -1.0998229677
    8      H       2.9915463968     0.0477255046     0.0557010157
    9      H       1.7268205274    -2.8582480106    -0.1961855023
   10      H      -2.8713506641     1.3375232272     0.1844192690
   11      H      -1.7137269524     0.3374884984     1.9960859932
   12      C      -1.2649243043     1.7139050826    -1.0678910249
   13      H      -0.2905193459     1.8102798249    -1.5279707446
 ----------------------------------------------------------------

   12    -286.7674834053      8.21E-09 Convergence criterion met
 Total energy in the final basis set = -286.76748341
 Final energy is   -286.767483405290
 **  OPTIMIZATION CONVERGED  **

                    Orbital Energies (a.u.)
 --------------------------------------------------------------

 Alpha MOs
 -- Occupied --
-14.324 -10.232 -10.231 -10.218 -10.210 -10.208 -10.204  -0.927
 -0.861  -0.776  -0.662  -0.593  -0.572  -0.542  -0.512  -0.481
 -0.458  -0.419  -0.373  -0.350  -0.307  -0.278  -0.270  -0.249
 -0.217

 Beta MOs
 -- Occupied --
-14.324 -10.231 -10.230 -10.210 -10.208 -10.206 -10.203  -0.927
 -0.860  -0.762  -0.652  -0.581  -0.572  -0.537  -0.509  -0.476
 -0.448  -0.412  -0.373  -0.350  -0.304  -0.275  -0.253  -0.236

          Ground-State Mulliken Net Atomic Charges

     Atom                 Charge (a.u.)    Spin (a.u.)
  --------------------------------------------------------
      1 C                    -0.020712       0.010186
      2 C                    -0.123503      -0.001269
      3 C                    -0.116605       0.000023
      4 C                    -0.159083      -0.164949
      5 C                     0.025674       0.078968
      6 N                    -0.338219      -0.021592
      7 H                     0.131630      -0.001708
      8 H                     0.152099      -0.000365
      9 H                     0.153805      -0.000528
     10 H                     0.153201       0.047776
     11 H                     0.138129       0.014562
     12 C                    -0.169557       1.037811
     13 H                     0.173141       0.001084
  --------------------------------------------------------
  Sum of atomic charges =     0.000000

                    Cartesian Multipole Moments
 -----------------------------------------------------------------
    Charge (ESU x 10^10)
                -0.0000
    Dipole Moment (Debye)
         X       0.5764      Y       0.1833      Z      -0.8841
       Tot       1.0712
    Quadrupole Moments (Debye-Ang)
        XX     -36.0825     XY      -0.3373     YY     -39.3884
        XZ      -2.8168     YZ       1.4897     ZZ     -42.8858

 Total job time:  81.31s(wall), 125.71s(cpu)
        *  Thank you very much for using Q-Chem.  Have a nice day.  *
