 Q-Chem 5.0, Q-Chem, Inc., Pleasanton, CA (2017)
 Q-Chem 5.0.2 for Intel X86 EM64T Linux

User input:
--------------------------------------------------------------
$molecule
0 2
C        1.1184279548    0.2253674243    0.4756302396
C        0.8712261597   -0.9806072958   -0.4429640738
C       -0.4497211412   -1.0235322974   -0.6802608896
C       -1.0764552804    0.1564588221    0.0909574608
C       -0.4450241850    1.4279370346   -0.5118170543
N        0.8139983116    1.4908555697   -0.3135919152
H        2.0889981005    0.2828095116    0.9660837992
H        1.6435544508   -1.6346689070   -0.8326628757
H       -0.9977524283   -1.7136227493   -1.3124711005
H       -2.1579967911    0.1432016864    0.2262937224
H       -0.9878583205    2.1892739038   -1.0695322310
C       -0.1489888581    0.0891851952    1.3085406563
H       -0.2724079727   -0.6526578981    2.0957942617
$end

$rem
method                b3lyp
basis                 6-31g(d)
unrestricted          true
symmetry              off
sym_ignore            true
incdft                false
incfock               0
scf_convergence       8
thresh                14
jobtype               opt
scf_guess             read
scf_algorithm         diis
max_scf_cycles        100
geom_opt_tol_gradient 600
geom_opt_tol_displacement 2400
geom_opt_tol_energy   200
geom_opt_max_cycles   100
$end

--------------------------------------------------------------

    2    -286.8516702428      6.14E-10 Convergence criterion met
 Total energy in the final basis set = -286.85167024

             Standard Nuclear Orientation (Angstroms)
    I     Atom           X                Y                Z
 ----------------------------------------------------------------
    1      C       1.1187399016     0.2257537141     0.4759632106
    2      C       0.8715621442    -0.9807667699    -0.4426998459
    3      C      -0.4496844732    -1.0234088197    -0.6793617042
    4      C      -1.0764223898     0.1563374523     0.0914006879
    5      C      -0.4451681770     1.4278213395    -0.5113755935
    6      N       0.8137304254     1.4908413379    -0.3127287105
    7      H       2.0897112504     0.2828024513     0.9656964310
    8      H       1.6434544552    -1.6343524307    -0.8339291570
    9      H      -0.9983922714    -1.7127937581    -1.3117440565
   10      H      -2.1582646653     0.1436406222     0.2243122305
   11      H      -0.9878930329     2.1881291749    -1.0705631158
   12      C      -0.1490101506     0.0892228320     1.3091362307
   13      H      -0.2723630165    -0.6532271458     2.0958933926
 ----------------------------------------------------------------

   10    -286.8516721463      6.60E-09 Convergence criterion met
 Total energy in the final basis set = -286.85167215
 Final energy is   -286.851672146347
 **  OPTIMIZATION CONVERGED  **

                    Orbital Energies (a.u.)
 --------------------------------------------------------------

 Alpha MOs
 -- Occupied --
-14.322 -10.224 -10.220 -10.210 -10.204 -10.201 -10.197  -0.952
 -0.821  -0.726  -0.705  -0.579  -0.573  -0.531  -0.512  -0.472
 -0.418  -0.410  -0.381  -0.373  -0.348  -0.294  -0.271  -0.258
 -0.196

 Beta MOs
 -- Occupied --
-14.321 -10.224 -10.221 -10.210 -10.200 -10.196 -10.190  -0.949
 -0.815  -0.725  -0.690  -0.577  -0.561  -0.527  -0.509  -0.463
 -0.414  -0.406  -0.379  -0.369  -0.342  -0.287  -0.261  -0.255

          Ground-State Mulliken Net Atomic Charges

     Atom                 Charge (a.u.)    Spin (a.u.)
  --------------------------------------------------------
      1 C                    -0.094452      -0.045029
      2 C                    -0.088021       0.040314
      3 C                    -0.095719       0.079364
      4 C                    -0.246328      -0.043912
      5 C                     0.092287      -0.008775
      6 N                    -0.325200       0.021929
      7 H                     0.139806       0.003029
      8 H                     0.146097       0.000880
      9 H                     0.145549       0.000354
     10 H                     0.133953       0.002858
     11 H                     0.149691      -0.000177
     12 C                    -0.096499       0.975726
     13 H                     0.138836      -0.026561
  --------------------------------------------------------
  Sum of atomic charges =    -0.000000

                    Cartesian Multipole Moments
 -----------------------------------------------------------------
    Charge (ESU x 10^10)
                -0.0000
    Dipole Moment (Debye)
         X      -1.4207      Y      -1.9013      Z      -0.0759
       Tot       2.3747
    Quadrupole Moments (Debye-Ang)
        XX     -38.1863     XY      -3.9088     YY     -42.7521
        XZ       2.0976     YZ       0.2706     ZZ     -40.5407

 Total job time:  47.49s(wall), 51.37s(cpu)
        *  Thank you very much for using Q-Chem.  Have a nice day.  *
