 Q-Chem 5.0, Q-Chem, Inc., Pleasanton, CA (2017)
 Q-Chem 5.0.2 for Intel X86 EM64T Linux

User input:
--------------------------------------------------------------
$molecule
0 2
C        1.6725149521    0.4115838399   -0.2228126392
C        1.1374037140   -0.8319380119   -0.2301072648
C       -0.2975598819   -1.0745358811   -0.0131968397
C       -1.1635911106    0.3137787470    0.0430961933
C       -0.3580440298    1.5155271317   -0.2391698249
N        0.9295246944    1.5916632643   -0.2731297555
H        2.7448866906    0.5528844683   -0.3179307167
H        1.7717766433   -1.6945287306   -0.4168775230
H       -0.7295909377   -1.9533295151   -0.4943953016
H       -2.1764526876    0.3363431216   -0.3629426391
H       -0.9144111912    2.4190955128   -0.4963983160
C       -0.9360196711   -0.5600648597    1.1952656856
H       -1.6804371850   -1.0264790875    1.8285989419
$end

$rem
method                b3lyp
basis                 6-31+g(d,p)
unrestricted          true
symmetry              off
sym_ignore            true
incdft                false
incfock               0
scf_convergence       8
thresh                14
jobtype               sp
scf_guess             core
scf_guess_mix         5
scf_algorithm         diis
max_scf_cycles        100
$end

--------------------------------------------------------------

             Standard Nuclear Orientation (Angstroms)
    I     Atom           X                Y                Z
 ----------------------------------------------------------------
    1      C       1.6725149521     0.4115838399    -0.2228126392
    2      C       1.1374037140    -0.8319380119    -0.2301072648
    3      C      -0.2975598819    -1.0745358811    -0.0131968397
    4      C      -1.1635911106     0.3137787470     0.0430961933
    5      C      -0.3580440298     1.5155271317    -0.2391698249
    6      N       0.9295246944     1.5916632643    -0.2731297555
    7      H       2.7448866906     0.5528844683    -0.3179307167
    8      H       1.7717766433    -1.6945287306    -0.4168775230
    9      H      -0.7295909377    -1.9533295151    -0.4943953016
   10      H      -2.1764526876     0.3363431216    -0.3629426391
   11      H      -0.9144111912     2.4190955128    -0.4963983160
   12      C      -0.9360196711    -0.5600648597     1.1952656856
   13      H      -1.6804371850    -1.0264790875     1.8285989419
 ----------------------------------------------------------------

   21    -286.8764979461      9.57E-09 Convergence criterion met
 Total energy in the final basis set = -286.87649795

                    Orbital Energies (a.u.)
 --------------------------------------------------------------

 Alpha MOs
 -- Occupied --
-14.337 -10.240 -10.235 -10.232 -10.230 -10.217 -10.206  -0.946
 -0.879  -0.776  -0.677  -0.651  -0.579  -0.540  -0.500  -0.492
 -0.460  -0.435  -0.387  -0.382  -0.370  -0.310  -0.267  -0.240
 -0.229

 Beta MOs
 -- Occupied --
-14.337 -10.240 -10.235 -10.232 -10.217 -10.216 -10.205  -0.944
 -0.869  -0.774  -0.669  -0.649  -0.565  -0.535  -0.497  -0.483
 -0.456  -0.432  -0.385  -0.380  -0.362  -0.300  -0.262  -0.236

          Ground-State Mulliken Net Atomic Charges

     Atom                 Charge (a.u.)    Spin (a.u.)
  --------------------------------------------------------
      1 C                    -0.251917      -0.035811
      2 C                     0.085709       0.046874
      3 C                    -0.150216      -0.027050
      4 C                    -0.016643       0.028332
      5 C                    -0.052842      -0.047966
      6 N                    -0.182532       0.016450
      7 H                     0.124991       0.000853
      8 H                     0.132603       0.003079
      9 H                     0.144282       0.017029
     10 H                     0.144227       0.022747
     11 H                     0.128437       0.005062
     12 C                    -0.254771       0.992198
     13 H                     0.148673      -0.021797
  --------------------------------------------------------
  Sum of atomic charges =     0.000000

                    Cartesian Multipole Moments
 -----------------------------------------------------------------
    Charge (ESU x 10^10)
                 0.0000
    Dipole Moment (Debye)
         X      -2.1292      Y      -2.2806      Z      -0.1665
       Tot       3.1245
    Quadrupole Moments (Debye-Ang)
        XX     -37.8702     XY      -3.2076     YY     -43.0661
        XZ      -0.3987     YZ       0.2901     ZZ     -43.9551

 Total job time:  67.68s(wall), 108.48s(cpu)
        *  Thank you very much for using Q-Chem.  Have a nice day.  *
