 Q-Chem 5.0, Q-Chem, Inc., Pleasanton, CA (2017)
 Q-Chem 5.0.2 for Intel X86 EM64T Linux

User input:
--------------------------------------------------------------
$molecule
0 2
C        1.6749549003    0.4170871134   -0.3054238537
C        1.1548265372   -0.8814199123   -0.3285224394
C       -0.2857189597   -1.0318745048   -0.0502264629
C       -1.2073064316    0.0959004452   -0.4918083802
C       -0.4573778047    1.2006717518    0.2242648476
N        0.9257211700    1.4777991828   -0.0368144610
H        2.7287712744    0.5990514800   -0.5130488676
H        1.7777006663   -1.7451580808   -0.5385769440
H       -0.7018564204   -2.0366451577   -0.0730624799
H       -2.1282680814    0.0899974667   -1.0582438908
H       -1.0277352348    2.1030104225    0.4315867855
C       -0.9130136008   -0.0578398071    0.9380580242
H       -1.5406980150   -0.2305803995    1.8018181222
$end

$rem
method                b3lyp
basis                 6-31+g(d,p)
unrestricted          true
symmetry              off
sym_ignore            true
incdft                false
incfock               0
scf_convergence       6
thresh                14
jobtype               sp
scf_guess             read
scf_algorithm         diis
max_scf_cycles        100
stability_analysis    true
max_cis_cycles        100
cis_n_roots           4
$end

--------------------------------------------------------------

             Standard Nuclear Orientation (Angstroms)
    I     Atom           X                Y                Z
 ----------------------------------------------------------------
    1      C       1.6749549003     0.4170871134    -0.3054238537
    2      C       1.1548265372    -0.8814199123    -0.3285224394
    3      C      -0.2857189597    -1.0318745048    -0.0502264629
    4      C      -1.2073064316     0.0959004452    -0.4918083802
    5      C      -0.4573778047     1.2006717518     0.2242648476
    6      N       0.9257211700     1.4777991828    -0.0368144610
    7      H       2.7287712744     0.5990514800    -0.5130488676
    8      H       1.7777006663    -1.7451580808    -0.5385769440
    9      H      -0.7018564204    -2.0366451577    -0.0730624799
   10      H      -2.1282680814     0.0899974667    -1.0582438908
   11      H      -1.0277352348     2.1030104225     0.4315867855
   12      C      -0.9130136008    -0.0578398071     0.9380580242
   13      H      -1.5406980150    -0.2305803995     1.8018181222
 ----------------------------------------------------------------

    2    -286.8794291124      3.98E-09 Convergence criterion met
 Total energy in the final basis set = -286.87942911

         TDDFT/TDA Excitation Energies
 ---------------------------------------------------

 Excited state   1: excitation energy (eV) =    2.1727
 Total energy for state  1:                  -286.79958553 au
    <S**2>     :  0.8133
    Trans. Mom.: -0.0191 X   0.0123 Y  -0.0969 Z
    Strength   :     0.0005272621
    D( 24) --> S(  1) amplitude =  0.9863 beta

 Excited state   2: excitation energy (eV) =    3.4891
 Total energy for state  2:                  -286.75120854 au
    <S**2>     :  0.7684
    Trans. Mom.:  0.2093 X  -0.2765 Y  -0.0735 Z
    Strength   :     0.0107425965
    S(  1) --> V(  1) amplitude =  0.3968 alpha
    S(  1) --> V(  2) amplitude = -0.1620 alpha
    D( 23) --> S(  1) amplitude =  0.8751 beta

 Excited state   3: excitation energy (eV) =    3.8835
 Total energy for state  3:                  -286.73671343 au
    <S**2>     :  0.8147
    Trans. Mom.: -0.0185 X   0.0096 Y  -0.0680 Z
    Strength   :     0.0004812284
    D( 22) --> S(  1) amplitude =  0.9830 beta

 Excited state   4: excitation energy (eV) =    4.5445
 Total energy for state  4:                  -286.71242327 au
    <S**2>     :  0.7869
    Trans. Mom.: -0.0461 X   0.5278 Y   0.0639 Z
    Strength   :     0.0317121353
    S(  1) --> V(  1) amplitude =  0.7994 alpha
    S(  1) --> V(  2) amplitude = -0.3162 alpha
    D( 20) --> S(  1) amplitude =  0.2080 beta
    D( 23) --> S(  1) amplitude = -0.4238 beta

 ---------------------------------------------------

                    Orbital Energies (a.u.)
 --------------------------------------------------------------

 Alpha MOs
 -- Occupied --
-14.336 -10.239 -10.230 -10.224 -10.223 -10.219 -10.214  -0.973
 -0.888  -0.778  -0.656  -0.637  -0.597  -0.551  -0.499  -0.480
 -0.465  -0.405  -0.401  -0.388  -0.356  -0.305  -0.296  -0.251
 -0.205

 Beta MOs
 -- Occupied --
-14.326 -10.240 -10.231 -10.222 -10.222 -10.221 -10.205  -0.966
 -0.875  -0.765  -0.645  -0.636  -0.591  -0.549  -0.498  -0.474
 -0.459  -0.399  -0.386  -0.385  -0.338  -0.299  -0.282  -0.242

          Ground-State Mulliken Net Atomic Charges

     Atom                 Charge (a.u.)    Spin (a.u.)
  --------------------------------------------------------
      1 C                    -0.320207      -0.241134
      2 C                     0.265491       0.708601
      3 C                    -0.422832      -0.070431
      4 C                     0.182840       0.093289
      5 C                    -0.623227      -0.037781
      6 N                    -0.069546       0.484744
      7 H                     0.124945       0.007429
      8 H                     0.131401      -0.032362
      9 H                     0.132685       0.000195
     10 H                     0.139818      -0.003925
     11 H                     0.140208       0.000211
     12 C                     0.178609       0.095174
     13 H                     0.139816      -0.004008
  --------------------------------------------------------
  Sum of atomic charges =    -0.000000

                    Cartesian Multipole Moments
 -----------------------------------------------------------------
    Charge (ESU x 10^10)
                -0.0000
    Dipole Moment (Debye)
         X      -1.7311      Y      -2.4490      Z       0.0934
       Tot       3.0004
    Quadrupole Moments (Debye-Ang)
        XX     -37.6148     XY      -3.6131     YY     -43.6221
        XZ      -1.4528     YZ       0.6217     ZZ     -42.4622

 Total job time:  280.12s(wall), 188.42s(cpu)
        *  Thank you very much for using Q-Chem.  Have a nice day.  *
