 Q-Chem 5.0, Q-Chem, Inc., Pleasanton, CA (2017)
 Q-Chem 5.0.2 for Intel X86 EM64T Linux

User input:
--------------------------------------------------------------
$molecule
0 2
C        1.6764508560    0.4030172359   -0.1930495549
C        1.1279256972   -0.8294509037   -0.2762912259
C       -0.3111861520   -1.0650627677   -0.0780077892
C       -1.1573573628    0.3241905948    0.0596926190
C       -0.3362343017    1.5305391778   -0.1496642450
N        0.9504662972    1.5941329163   -0.1778351384
H        2.7521568091    0.5364232580   -0.2734544019
H        1.7524274039   -1.6892883233   -0.5063386061
H       -0.7536106631   -1.9073286746   -0.6131413927
H       -2.1691029248    0.3824160846   -0.3464860033
H       -0.8823441550    2.4547635607   -0.3541108086
C       -0.9438247283   -0.6178898410    1.1606941645
H       -1.7057667758   -1.1164623184    1.7479923823
****
C        1.6122399012    0.3946117159   -0.3200388425
C        1.1656878054   -0.9029043403   -0.4871024535
C       -0.1596444965   -1.4234414962   -0.2679558642
C       -1.2525584176   -0.7282459612    0.1560206471
C       -0.2976105456    1.6095363817    0.4232469982
N        1.0096526555    1.5391945836    0.0786238675
H        2.6682602442    0.5487488711   -0.5525659560
H        1.9119219593   -1.6167207379   -0.8277760291
H       -0.2900743317   -2.4854909963   -0.4657278816
H       -2.1825846434   -1.2819210144    0.2686316671
H       -0.5882882872    2.6203981789    0.7178166301
C       -1.3149130757    0.6752205706    0.4758251278
H       -2.2820887679    1.0510142446    0.8010020892
$end

$rem
method                b3lyp
basis                 6-31g(d)
unrestricted          true
symmetry              off
sym_ignore            true
incdft                false
incfock               0
scf_convergence       8
thresh                14
jobtype               fsm
scf_guess             core
scf_guess_mix         5
scf_algorithm         diis
max_scf_cycles        100
fsm_nnode             21
fsm_ngrad             6
fsm_mode              2
fsm_opt_mode          2
$end

--------------------------------------------------------------

   21    -286.8549138482      5.76E-09 Convergence criterion met
 Total energy in the final basis set = -286.85491385
   23    -286.9243540615      3.87E-09 Convergence criterion met
 Total energy in the final basis set = -286.92435406
   21    -286.8510933872      7.34E-09 Convergence criterion met
 Total energy in the final basis set = -286.85109339
   21    -286.8529601018      9.77E-09 Convergence criterion met
 Total energy in the final basis set = -286.85296010
   24    -286.9215612653      5.23E-09 Convergence criterion met
 Total energy in the final basis set = -286.92156127
   23    -286.9221864880      8.75E-09 Convergence criterion met
 Total energy in the final basis set = -286.92218649
   24    -286.9221435707      5.82E-09 Convergence criterion met
 Total energy in the final basis set = -286.92214357
   21    -286.8440913880      7.59E-09 Convergence criterion met
 Total energy in the final basis set = -286.79543253
   23    -286.7966133745      3.80E-09 Convergence criterion met
 Total energy in the final basis set = -286.79661337
   23    -286.7954831966      3.96E-09 Convergence criterion met
 Total energy in the final basis set = -286.79548320
   23    -286.7965636839      3.80E-09 Convergence criterion met
 Total energy in the final basis set = -286.79656368
   23    -286.7955478883      3.95E-09 Convergence criterion met
 Total energy in the final basis set = -286.79554789
   23    -286.7965002291      3.81E-09 Convergence criterion met
 Total energy in the final basis set = -286.79650023
   23    -286.7956139021      3.95E-09 Convergence criterion met
 Total energy in the final basis set = -286.79561390
   23    -286.7964355567      3.82E-09 Convergence criterion met
 Total energy in the final basis set = -286.79643556

                    Orbital Energies (a.u.)
 --------------------------------------------------------------

 Alpha MOs
 -- Occupied --
-14.327 -10.254 -10.235 -10.218 -10.217 -10.205 -10.194  -0.939
 -0.865  -0.767  -0.651  -0.623  -0.573  -0.529  -0.494  -0.482
 -0.445  -0.417  -0.382  -0.370  -0.333  -0.306  -0.258  -0.239
 -0.188

 Beta MOs
 -- Occupied --
-14.322 -10.255 -10.235 -10.218 -10.206 -10.205 -10.191  -0.933
 -0.854  -0.764  -0.648  -0.618  -0.554  -0.524  -0.493  -0.476
 -0.442  -0.414  -0.378  -0.362  -0.323  -0.298  -0.253  -0.217

          Ground-State Mulliken Net Atomic Charges

     Atom                 Charge (a.u.)    Spin (a.u.)
  --------------------------------------------------------
      1 C                    -0.002624      -0.108325
      2 C                    -0.071699       0.184627
      3 C                    -0.187867      -0.045398
      4 C                    -0.157209      -0.014584
      5 C                     0.043935      -0.126125
      6 N                    -0.367690       0.238889
      7 H                     0.137762       0.006075
      8 H                     0.136187      -0.008080
      9 H                     0.152992       0.019555
     10 H                     0.159382       0.016892
     11 H                     0.159683       0.010853
     12 C                    -0.166101       0.854897
     13 H                     0.163249      -0.029277
  --------------------------------------------------------
  Sum of atomic charges =    -0.000000

                    Cartesian Multipole Moments
 -----------------------------------------------------------------
    Charge (ESU x 10^10)
                -0.0000
    Dipole Moment (Debye)
         X      -1.8629      Y      -1.5105      Z      -0.6208
       Tot       2.4774
    Quadrupole Moments (Debye-Ang)
        XX     -36.6422     XY      -3.1174     YY     -41.0036
        XZ      -1.9836     YZ       1.6873     ZZ     -42.5698

             Standard Nuclear Orientation (Angstroms)
    I     Atom           X                Y                Z
 ----------------------------------------------------------------
    1      C       1.6721228338     0.3870308682    -0.2802061979
    2      C       1.1711266804    -0.8636996117    -0.3050175229
    3      C      -0.2688433663    -1.1022679619    -0.0296518096
    4      C      -1.1789109679     0.1015315289    -0.2898536928
    5      C      -0.3895785923     1.4299737547    -0.0598731150
    6      N       0.9043856560     1.5193061529    -0.0193946534
    7      H       2.7289365582     0.5734337175    -0.4486294797
    8      H       1.8054051068    -1.6858640299    -0.6317299114
    9      H      -0.6112385242    -2.0789213698    -0.3951968561
   10      H      -2.1535933938    -0.1199415608    -0.7406978422
   11      H      -0.9166146584     2.3626959161     0.1982766500
   12      C      -1.0022279484    -0.3082203469     1.0936781214
   13      H      -1.7778549049    -0.2349663420     1.8532749734
 ----------------------------------------------------------------

 Total job time:  4585.61s(wall), 5023.43s(cpu)
        *  Thank you very much for using Q-Chem.  Have a nice day.  *
