 Q-Chem 5.0, Q-Chem, Inc., Pleasanton, CA (2017)
 Q-Chem 5.0.2 for Intel X86 EM64T Linux

User input:
--------------------------------------------------------------
$molecule
0 2
C        1.6714095739    0.4022340436   -0.3317755981
C        1.1704669718   -0.8613224022   -0.3021162924
C       -0.2648978454   -1.0449452337    0.0176595293
C       -1.1913226181    0.1363106710   -0.3556336152
C       -0.4122905654    1.3537113278    0.0009797587
N        0.9051474290    1.5085071675   -0.0475400404
H        2.7203755964    0.5994431778   -0.5350941484
H        1.7844753939   -1.7246853940   -0.5385708430
H       -0.6709013274   -2.0429146369   -0.1506274993
H       -2.0804776141    0.1163024159   -0.9806780761
H       -0.9941606087    2.2344791840    0.2694725072
C       -1.0017788403   -0.2465907358    1.0305851954
H       -1.6529310666   -0.4504388696    1.8683177860
$end

$rem
method                b3lyp
basis                 6-31+g(d,p)
unrestricted          true
symmetry              off
sym_ignore            true
incdft                false
incfock               0
scf_convergence       8
thresh                14
jobtype               rpath
scf_guess             core
scf_guess_mix         5
scf_algorithm         diis
max_scf_cycles        100
rpath_direction       1
rpath_tol_displacement 1000
rpath_max_cycles      50
geom_opt_max_cycles   300
geom_opt_hessian      read
$end

--------------------------------------------------------------

   22    -286.8546157959      4.72E-09 Convergence criterion met
 Total energy in the final basis set = -286.85461580
   22    -286.8561005587      9.92E-09 Convergence criterion met
 Total energy in the final basis set = -286.85610056
   23    -286.8560624294      3.99E-09 Convergence criterion met
 Total energy in the final basis set = -286.85606243
   23    -286.8561032063      4.22E-09 Convergence criterion met
 Total energy in the final basis set = -286.85610321
   22    -286.8605129904      6.62E-09 Convergence criterion met
 Total energy in the final basis set = -286.86051299
   22    -286.8604752618      5.16E-09 Convergence criterion met
 Total energy in the final basis set = -286.86047526
   22    -286.8605188156      6.17E-09 Convergence criterion met
 Total energy in the final basis set = -286.86051882
   21    -286.8663858280      4.44E-09 Convergence criterion met
 Total energy in the final basis set = -286.87551727
   21    -286.8763882350      7.99E-09 Convergence criterion met
 Total energy in the final basis set = -286.87638823
   22    -286.8763808160      4.15E-09 Convergence criterion met
 Total energy in the final basis set = -286.87638082
   22    -286.8763918678      4.29E-09 Convergence criterion met
 Total energy in the final basis set = -286.87639187
   21    -286.8742472907      6.20E-09 Convergence criterion met
 Total energy in the final basis set = -286.87424729
   22    -286.8763950134      4.17E-09 Convergence criterion met
 Total energy in the final basis set = -286.87639501
   22    -286.8763943360      4.41E-09 Convergence criterion met
 Total energy in the final basis set = -286.87639434
   22    -286.8763963055      4.22E-09 Convergence criterion met
 Total energy in the final basis set = -286.87639631

                    Orbital Energies (a.u.)
 --------------------------------------------------------------

 Alpha MOs
 -- Occupied --
-14.337 -10.241 -10.235 -10.231 -10.230 -10.217 -10.206  -0.946
 -0.879  -0.776  -0.677  -0.651  -0.579  -0.540  -0.500  -0.492
 -0.460  -0.434  -0.385  -0.383  -0.370  -0.310  -0.267  -0.240
 -0.230

 Beta MOs
 -- Occupied --
-14.337 -10.240 -10.235 -10.231 -10.217 -10.216 -10.205  -0.944
 -0.869  -0.774  -0.669  -0.649  -0.565  -0.535  -0.497  -0.483
 -0.456  -0.431  -0.384  -0.380  -0.362  -0.301  -0.261  -0.237

          Ground-State Mulliken Net Atomic Charges

     Atom                 Charge (a.u.)    Spin (a.u.)
  --------------------------------------------------------
      1 C                    -0.251629      -0.032846
      2 C                     0.100919       0.038164
      3 C                    -0.160882      -0.021634
      4 C                    -0.011986       0.025169
      5 C                    -0.057850      -0.040876
      6 N                    -0.182122       0.013478
      7 H                     0.125195       0.000752
      8 H                     0.131885       0.003376
      9 H                     0.144321       0.018150
     10 H                     0.144410       0.021098
     11 H                     0.128750       0.005094
     12 C                    -0.259754       0.991855
     13 H                     0.148744      -0.021781
  --------------------------------------------------------
  Sum of atomic charges =    -0.000000

                    Cartesian Multipole Moments
 -----------------------------------------------------------------
    Charge (ESU x 10^10)
                -0.0000
    Dipole Moment (Debye)
         X      -2.1288      Y      -2.2751      Z      -0.2068
       Tot       3.1226
    Quadrupole Moments (Debye-Ang)
        XX     -37.8917     XY      -3.2076     YY     -43.0363
        XZ      -0.4982     YZ       0.2915     ZZ     -43.9701

             Standard Nuclear Orientation (Angstroms)
    I     Atom           X                Y                Z
 ----------------------------------------------------------------
    1      C       1.6714095739     0.4022340436    -0.3317755981
    2      C       1.1704669718    -0.8613224022    -0.3021162924
    3      C      -0.2648978454    -1.0449452337     0.0176595293
    4      C      -1.1913226181     0.1363106710    -0.3556336152
    5      C      -0.4122905654     1.3537113278     0.0009797587
    6      N       0.9051474290     1.5085071675    -0.0475400404
    7      H       2.7203755964     0.5994431778    -0.5350941484
    8      H       1.7844753939    -1.7246853940    -0.5385708430
    9      H      -0.6709013274    -2.0429146369    -0.1506274993
   10      H      -2.0804776141     0.1163024159    -0.9806780761
   11      H      -0.9941606087     2.2344791840     0.2694725072
   12      C      -1.0017788403    -0.2465907358     1.0305851954
   13      H      -1.6529310666    -0.4504388696     1.8683177860
 ----------------------------------------------------------------

 Total job time:  15742.05s(wall), 30282.34s(cpu)
        *  Thank you very much for using Q-Chem.  Have a nice day.  *
