 Q-Chem 5.0, Q-Chem, Inc., Pleasanton, CA (2017)
 Q-Chem 5.0.2 for Intel X86 EM64T Linux

User input:
--------------------------------------------------------------
$molecule
0 2
C        1.6739362894    0.4095892703   -0.2426161936
C        1.1415131698   -0.8337269875   -0.2289212336
C       -0.2922070542   -1.0761633359    0.0014431245
C       -1.1646861025    0.3041515652    0.0220122175
C       -0.3570792227    1.5135826234   -0.2301207427
N        0.9299062652    1.5916049127   -0.2665761164
H        2.7430687521    0.5521941021   -0.3691735036
H        1.7735073440   -1.6963113706   -0.4230159400
H       -0.7167994966   -1.9665726412   -0.4652087240
H       -2.1661282953    0.3213943766   -0.4111968559
H       -0.9147377694    2.4271839152   -0.4464980839
C       -0.9551373158   -0.5514791018    1.1922419292
H       -1.7120420800   -1.0153566038    1.8126087849
$end

$rem
method                b3lyp
basis                 6-31+g(d,p)
unrestricted          true
symmetry              off
sym_ignore            true
incdft                false
incfock               0
scf_convergence       8
thresh                14
jobtype               opt
scf_guess             read
scf_algorithm         diis
max_scf_cycles        100
geom_opt_max_cycles   300
$end

--------------------------------------------------------------

    2    -286.8763963057      1.21E-09 Convergence criterion met
 Total energy in the final basis set = -286.87639631
   12    -286.8764508178      5.67E-09 Convergence criterion met
 Total energy in the final basis set = -286.87645082
   12    -286.8764888246      9.31E-09 Convergence criterion met
 Total energy in the final basis set = -286.87648882
   11    -286.8764942721      5.21E-09 Convergence criterion met
 Total energy in the final basis set = -286.87649427
   11    -286.8764974457      5.13E-09 Convergence criterion met
 Total energy in the final basis set = -286.87649745

             Standard Nuclear Orientation (Angstroms)
    I     Atom           X                Y                Z
 ----------------------------------------------------------------
    1      C       1.6712160663     0.4100523572    -0.2270450498
    2      C       1.1361048282    -0.8334694946    -0.2343396754
    3      C      -0.2988587677    -1.0760673638    -0.0174292503
    4      C      -1.1648899964     0.3122472643     0.0388637827
    5      C      -0.3593429156     1.5139956490    -0.2434022355
    6      N       0.9282258086     1.5901317816    -0.2773621661
    7      H       2.7435878048     0.5513529856    -0.3221631273
    8      H       1.7704777575    -1.6960602133    -0.4211099336
    9      H      -0.7308898235    -1.9548609978    -0.4986277122
   10      H      -2.1777515734     0.3348116389    -0.3671750497
   11      H      -0.9157100770     2.4175640301    -0.5006307266
   12      C      -0.9373185569    -0.5615963424     1.1910332750
   13      H      -1.6817360708    -1.0280105702     1.8243665313
 ----------------------------------------------------------------

    9    -286.8764979468      4.65E-09 Convergence criterion met
 Total energy in the final basis set = -286.87649795
 Final energy is   -286.876497946750
 **  OPTIMIZATION CONVERGED  **

                    Orbital Energies (a.u.)
 --------------------------------------------------------------

 Alpha MOs
 -- Occupied --
-14.337 -10.240 -10.235 -10.232 -10.230 -10.217 -10.206  -0.946
 -0.879  -0.776  -0.677  -0.651  -0.579  -0.540  -0.500  -0.492
 -0.460  -0.435  -0.387  -0.382  -0.370  -0.310  -0.267  -0.240
 -0.229

 Beta MOs
 -- Occupied --
-14.337 -10.240 -10.235 -10.232 -10.217 -10.216 -10.205  -0.944
 -0.869  -0.774  -0.669  -0.649  -0.565  -0.535  -0.497  -0.483
 -0.456  -0.432  -0.385  -0.380  -0.362  -0.300  -0.262  -0.236

          Ground-State Mulliken Net Atomic Charges

     Atom                 Charge (a.u.)    Spin (a.u.)
  --------------------------------------------------------
      1 C                    -0.251917      -0.035749
      2 C                     0.085709       0.046796
      3 C                    -0.150217      -0.027031
      4 C                    -0.016642       0.028314
      5 C                    -0.052842      -0.047902
      6 N                    -0.182532       0.016404
      7 H                     0.124991       0.000849
      8 H                     0.132603       0.003085
      9 H                     0.144282       0.017028
     10 H                     0.144227       0.022748
     11 H                     0.128437       0.005057
     12 C                    -0.254771       0.992199
     13 H                     0.148673      -0.021797
  --------------------------------------------------------
  Sum of atomic charges =    -0.000000

                    Cartesian Multipole Moments
 -----------------------------------------------------------------
    Charge (ESU x 10^10)
                -0.0000
    Dipole Moment (Debye)
         X      -2.1292      Y      -2.2806      Z      -0.1665
       Tot       3.1245
    Quadrupole Moments (Debye-Ang)
        XX     -37.8647     XY      -3.2014     YY     -43.0591
        XZ      -0.3895     YZ       0.3000     ZZ     -43.9537

 Total job time:  203.82s(wall), 395.46s(cpu)
        *  Thank you very much for using Q-Chem.  Have a nice day.  *
