 Q-Chem 5.0, Q-Chem, Inc., Pleasanton, CA (2017)
 Q-Chem 5.0.2 for Intel X86 EM64T Linux

User input:
--------------------------------------------------------------
$molecule
0 2
C        1.6122494047    0.3946278292   -0.3200295248
C        1.1658909534   -0.9030541470   -0.4862486301
C       -0.1595476215   -1.4235519391   -0.2676467073
C       -1.2527405999   -0.7281165950    0.1552449236
C       -0.2972360342    1.6092285211    0.4247268073
N        1.0095852391    1.5393166337    0.0782923710
H        2.6676952812    0.5491998630   -0.5548799498
H        1.9121667943   -1.6169476107   -0.8267056977
H       -0.2899010669   -2.4856640353   -0.4650881295
H       -2.1829704076   -1.2816020282    0.2672149033
H       -0.5881459804    2.6202780184    0.7185097546
C       -1.3149252381    0.6752234936    0.4757924417
H       -2.2821207241    1.0510619963    0.8008174376
$end

$rem
method                b3lyp
basis                 6-31g(d)
unrestricted          true
symmetry              off
sym_ignore            true
incdft                false
incfock               0
scf_convergence       8
thresh                14
jobtype               opt
scf_guess             core
scf_guess_mix         5
scf_algorithm         diis
max_scf_cycles        100
geom_opt_max_cycles   300
$end

--------------------------------------------------------------

   23    -286.9243532781      4.71E-09 Convergence criterion met
 Total energy in the final basis set = -286.92435328

             Standard Nuclear Orientation (Angstroms)
    I     Atom           X                Y                Z
 ----------------------------------------------------------------
    1      C       1.6122399012     0.3946117159    -0.3200388425
    2      C       1.1656878054    -0.9029043403    -0.4871024535
    3      C      -0.1596444965    -1.4234414962    -0.2679558642
    4      C      -1.2525584176    -0.7282459612     0.1560206471
    5      C      -0.2976105456     1.6095363817     0.4232469982
    6      N       1.0096526555     1.5391945836     0.0786238675
    7      H       2.6682602442     0.5487488711    -0.5525659560
    8      H       1.9119219593    -1.6167207379    -0.8277760291
    9      H      -0.2900743317    -2.4854909963    -0.4657278816
   10      H      -2.1825846434    -1.2819210144     0.2686316671
   11      H      -0.5882882872     2.6203981789     0.7178166301
   12      C      -1.3149130757     0.6752205706     0.4758251278
   13      H      -2.2820887679     1.0510142446     0.8010020892
 ----------------------------------------------------------------

   18    -286.9243540857      2.92E-09 Convergence criterion met
 Total energy in the final basis set = -286.92435409
 Final energy is   -286.924354085721
 **  OPTIMIZATION CONVERGED  **

                    Orbital Energies (a.u.)
 --------------------------------------------------------------

 Alpha MOs
 -- Occupied --
-14.322 -10.232 -10.232 -10.212 -10.211 -10.201 -10.201  -0.922
 -0.818  -0.784  -0.693  -0.667  -0.551  -0.537  -0.518  -0.449
 -0.439  -0.414  -0.394  -0.387  -0.349  -0.322  -0.299  -0.251
 -0.162

 Beta MOs
 -- Occupied --
-14.314 -10.233 -10.233 -10.210 -10.210 -10.196 -10.196  -0.911
 -0.809  -0.777  -0.681  -0.665  -0.546  -0.535  -0.514  -0.447
 -0.438  -0.411  -0.383  -0.373  -0.348  -0.295  -0.276  -0.241

          Ground-State Mulliken Net Atomic Charges

     Atom                 Charge (a.u.)    Spin (a.u.)
  --------------------------------------------------------
      1 C                     0.035615      -0.112854
      2 C                    -0.131727       0.347366
      3 C                    -0.111107       0.093238
      4 C                    -0.111337       0.094268
      5 C                     0.035327      -0.112376
      6 N                    -0.423242       0.386909
      7 H                     0.142613       0.003413
      8 H                     0.134386      -0.018353
      9 H                     0.141908      -0.006611
     10 H                     0.141921      -0.006663
     11 H                     0.142680       0.003390
     12 C                    -0.131373       0.346589
     13 H                     0.134336      -0.018316
  --------------------------------------------------------
  Sum of atomic charges =     0.000000

                    Cartesian Multipole Moments
 -----------------------------------------------------------------
    Charge (ESU x 10^10)
                -0.0000
    Dipole Moment (Debye)
         X      -1.2289      Y      -1.8740      Z      -0.0950
       Tot       2.2430
    Quadrupole Moments (Debye-Ang)
        XX     -37.2230     XY      -3.2522     YY     -40.3002
        XZ      -2.2437     YZ       1.4869     ZZ     -42.4746

 Total job time:  111.57s(wall), 123.48s(cpu)
        *  Thank you very much for using Q-Chem.  Have a nice day.  *
