 Q-Chem 5.0, Q-Chem, Inc., Pleasanton, CA (2017)
 Q-Chem 5.0.2 for Intel X86 EM64T Linux

User input:
--------------------------------------------------------------
$molecule
0 2
C        1.6766486773    0.4031423996   -0.1918642777
C        1.1282007034   -0.8292677530   -0.2746751194
C       -0.3108954007   -1.0646849315   -0.0774503053
C       -1.1574502219    0.3247619811    0.0611268453
C       -0.3360814165    1.5304213908   -0.1504490947
N        0.9506007858    1.5940531829   -0.1791971504
H        2.7521717286    0.5365429016   -0.2744071056
H        1.7516913487   -1.6895276794   -0.5057336480
H       -0.7536594289   -1.9049524985   -0.6150243458
H       -2.1693372430    0.3822252724   -0.3446568584
H       -0.8817838171    2.4546204173   -0.3561880328
C       -0.9441731845   -0.6183577630    1.1612753437
H       -1.7059325314   -1.1189769209    1.7472437488
$end

$rem
method                b3lyp
basis                 6-31g(d)
unrestricted          true
symmetry              off
sym_ignore            true
incdft                false
incfock               0
scf_convergence       8
thresh                14
jobtype               opt
scf_guess             core
scf_guess_mix         5
scf_algorithm         diis
max_scf_cycles        100
geom_opt_max_cycles   300
$end

--------------------------------------------------------------

   21    -286.8549117565      6.18E-09 Convergence criterion met
 Total energy in the final basis set = -286.85491176
   16    -286.8549134559      6.31E-09 Convergence criterion met
 Total energy in the final basis set = -286.85491346

             Standard Nuclear Orientation (Angstroms)
    I     Atom           X                Y                Z
 ----------------------------------------------------------------
    1      C       1.6764508560     0.4030172359    -0.1930495549
    2      C       1.1279256972    -0.8294509037    -0.2762912259
    3      C      -0.3111861520    -1.0650627677    -0.0780077892
    4      C      -1.1573573628     0.3241905948     0.0596926190
    5      C      -0.3362343017     1.5305391778    -0.1496642450
    6      N       0.9504662972     1.5941329163    -0.1778351384
    7      H       2.7521568091     0.5364232580    -0.2734544019
    8      H       1.7524274039    -1.6892883233    -0.5063386061
    9      H      -0.7536106631    -1.9073286746    -0.6131413927
   10      H      -2.1691029248     0.3824160846    -0.3464860033
   11      H      -0.8823441550     2.4547635607    -0.3541108086
   12      C      -0.9438247283    -0.6178898410     1.1606941645
   13      H      -1.7057667758    -1.1164623184     1.7479923823
 ----------------------------------------------------------------

   16    -286.8549138483      6.34E-09 Convergence criterion met
 Total energy in the final basis set = -286.85491385
 Final energy is   -286.854913848319
 **  OPTIMIZATION CONVERGED  **

                    Orbital Energies (a.u.)
 --------------------------------------------------------------

 Alpha MOs
 -- Occupied --
-14.323 -10.230 -10.224 -10.221 -10.219 -10.206 -10.195  -0.934
 -0.868  -0.765  -0.667  -0.641  -0.570  -0.532  -0.491  -0.482
 -0.451  -0.425  -0.377  -0.373  -0.359  -0.300  -0.256  -0.229
 -0.219

 Beta MOs
 -- Occupied --
-14.323 -10.229 -10.225 -10.221 -10.207 -10.205 -10.194  -0.932
 -0.858  -0.763  -0.659  -0.639  -0.556  -0.527  -0.488  -0.472
 -0.447  -0.422  -0.375  -0.370  -0.351  -0.290  -0.250  -0.225

          Ground-State Mulliken Net Atomic Charges

     Atom                 Charge (a.u.)    Spin (a.u.)
  --------------------------------------------------------
      1 C                    -0.009136      -0.014874
      2 C                    -0.084014       0.041574
      3 C                    -0.175840      -0.016371
      4 C                    -0.194419      -0.016648
      5 C                     0.088460       0.019002
      6 N                    -0.391552       0.002816
      7 H                     0.136732       0.000775
      8 H                     0.139615       0.003605
      9 H                     0.155216       0.016926
     10 H                     0.155408       0.022643
     11 H                     0.142808       0.005860
     12 C                    -0.120993       0.957829
     13 H                     0.157714      -0.023139
  --------------------------------------------------------
  Sum of atomic charges =    -0.000000

                    Cartesian Multipole Moments
 -----------------------------------------------------------------
    Charge (ESU x 10^10)
                -0.0000
    Dipole Moment (Debye)
         X      -1.9339      Y      -2.0497      Z      -0.3175
       Tot       2.8359
    Quadrupole Moments (Debye-Ang)
        XX     -36.9704     XY      -2.9367     YY     -41.5953
        XZ      -0.4583     YZ       0.3345     ZZ     -42.3416

 Total job time:  155.84s(wall), 165.62s(cpu)
        *  Thank you very much for using Q-Chem.  Have a nice day.  *
