 Q-Chem 5.0, Q-Chem, Inc., Pleasanton, CA (2017)
 Q-Chem 5.0.2 for Intel X86 EM64T Linux

User input:
--------------------------------------------------------------
$molecule
0 2
C        1.6692165194    0.4020421922   -0.3329704537
C        1.1707511343   -0.8601924275   -0.3015675632
C       -0.2646096269   -1.0439326166    0.0199013927
C       -1.1916186055    0.1353965403   -0.3539592033
C       -0.4095048035    1.3527858618   -0.0006395827
N        0.9063419079    1.5095909548   -0.0468451581
H        2.7191364370    0.5993089318   -0.5378579626
H        1.7844943531   -1.7241872301   -0.5380100906
H       -0.6712464107   -2.0417918059   -0.1499796941
H       -2.0792510804    0.1147803293   -0.9825103802
H       -0.9927657722    2.2322221590    0.2726817779
C       -1.0018509631   -0.2433166335    1.0308973090
H       -1.6559786103   -0.4526155401    1.8658382727
$end

$rem
method                b3lyp
basis                 6-31+g(d,p)
unrestricted          true
symmetry              off
sym_ignore            true
incdft                false
incfock               0
scf_convergence       8
thresh                14
jobtype               freq
scf_guess             read
scf_algorithm         diis
max_scf_cycles        100
$end

--------------------------------------------------------------

             Standard Nuclear Orientation (Angstroms)
    I     Atom           X                Y                Z
 ----------------------------------------------------------------
    1      C       1.6692165194     0.4020421922    -0.3329704537
    2      C       1.1707511343    -0.8601924275    -0.3015675632
    3      C      -0.2646096269    -1.0439326166     0.0199013927
    4      C      -1.1916186055     0.1353965403    -0.3539592033
    5      C      -0.4095048035     1.3527858618    -0.0006395827
    6      N       0.9063419079     1.5095909548    -0.0468451581
    7      H       2.7191364370     0.5993089318    -0.5378579626
    8      H       1.7844943531    -1.7241872301    -0.5380100906
    9      H      -0.6712464107    -2.0417918059    -0.1499796941
   10      H      -2.0792510804     0.1147803293    -0.9825103802
   11      H      -0.9927657722     2.2322221590     0.2726817779
   12      C      -1.0018509631    -0.2433166335     1.0308973090
   13      H      -1.6559786103    -0.4526155401     1.8658382727
 ----------------------------------------------------------------

    2    -286.8545880859      2.18E-09 Convergence criterion met
 Total energy in the final basis set = -286.85458809

                    Orbital Energies (a.u.)
 --------------------------------------------------------------

 Alpha MOs
 -- Occupied --
-14.338 -10.252 -10.231 -10.230 -10.227 -10.216 -10.204  -0.960
 -0.886  -0.778  -0.661  -0.646  -0.591  -0.545  -0.505  -0.491
 -0.461  -0.422  -0.397  -0.382  -0.359  -0.312  -0.273  -0.255
 -0.197

 Beta MOs
 -- Occupied --
-14.332 -10.255 -10.231 -10.226 -10.221 -10.217 -10.200  -0.953
 -0.875  -0.773  -0.653  -0.644  -0.577  -0.540  -0.503  -0.484
 -0.457  -0.417  -0.394  -0.370  -0.348  -0.302  -0.265  -0.234

          Ground-State Mulliken Net Atomic Charges

     Atom                 Charge (a.u.)    Spin (a.u.)
  --------------------------------------------------------
      1 C                    -0.306378      -0.161717
      2 C                     0.281724       0.330521
      3 C                    -0.391047      -0.047986
      4 C                     0.239998       0.023029
      5 C                    -0.360926      -0.180503
      6 N                    -0.101118       0.341875
      7 H                     0.126577       0.008440
      8 H                     0.127989      -0.014435
      9 H                     0.139872       0.017295
     10 H                     0.139006       0.002085
     11 H                     0.143655       0.009359
     12 C                    -0.182629       0.693753
     13 H                     0.143277      -0.021714
  --------------------------------------------------------
  Sum of atomic charges =     0.000000

                    Cartesian Multipole Moments
 -----------------------------------------------------------------
    Charge (ESU x 10^10)
                -0.0000
    Dipole Moment (Debye)
         X      -2.0468      Y      -2.1012      Z      -0.3717
       Tot       2.9568
    Quadrupole Moments (Debye-Ang)
        XX     -37.9970     XY      -3.3774     YY     -42.9866
        XZ      -1.5396     YZ      -0.1236     ZZ     -43.0556

 Frequency:      -597.54                 305.22                 350.65
 Force Cnst:      1.1383                 0.1736                 0.2052
 Red. Mass:       5.4111                 3.1626                 2.8330
 IR Intens:        7.479                  2.616                 16.106
 Frequency:       526.91                 554.21                 561.85
 Force Cnst:      0.4509                 1.1896                 0.3111
 Red. Mass:       2.7565                 6.5735                 1.6729
 IR Intens:       13.161                  6.634                 25.733
 Frequency:       675.24                 720.71                 758.20
 Force Cnst:      1.1091                 0.6047                 0.5339
 Red. Mass:       4.1288                 1.9760                 1.5763
 IR Intens:        1.645                  7.843                 53.764
 Frequency:       814.81                 880.66                 904.25
 Force Cnst:      0.5620                 2.0852                 0.6194
 Red. Mass:       1.4366                 4.5635                 1.2858
 IR Intens:       12.870                  4.351                  2.224
 Frequency:       960.59                 967.12                 988.15
 Force Cnst:      0.7588                 0.8094                 1.2460
 Red. Mass:       1.3958                 1.4688                 2.1659
 IR Intens:        2.225                  6.810                 35.111
 Frequency:      1019.13                1029.20                1062.21
 Force Cnst:      2.1835                 1.2441                 0.9678
 Red. Mass:       3.5681                 1.9934                 1.4558
 IR Intens:        1.608                  7.220                  2.571
 Frequency:      1106.86                1189.16                1214.79
 Force Cnst:      1.3586                 1.4424                 1.2113
 Red. Mass:       1.8822                 1.7312                 1.3931
 IR Intens:        4.248                  4.525                  9.223
 Frequency:      1293.39                1349.72                1371.56
 Force Cnst:      1.7582                 3.7231                 1.6836
 Red. Mass:       1.7839                 3.4687                 1.5190
 IR Intens:        7.484                  3.742                  6.837
 Frequency:      1438.10                1460.23                1596.81
 Force Cnst:      2.1528                 2.8019                 7.0565
 Red. Mass:       1.7668                 2.2303                 4.6971
 IR Intens:        0.375                  1.543                 19.984
 Frequency:      3124.56                3149.26                3156.90
 Force Cnst:      6.2495                 6.3596                 6.4116
 Red. Mass:       1.0865                 1.0883                 1.0919
 IR Intens:       13.483                 15.193                 27.178
 Frequency:      3173.90                3203.54                3249.22
 Force Cnst:      6.4565                 6.6277                 6.8246
 Red. Mass:       1.0878                 1.0961                 1.0971
 IR Intens:       12.768                 20.402                  0.145

 STANDARD THERMODYNAMIC QUANTITIES AT   298.15 K  AND     1.00 ATM

   This Molecule has  1 Imaginary Frequencies
   Zero point vibrational energy:       63.126 kcal/mol

   Atom    1 Element C  Has Mass   12.00000
   Atom    2 Element C  Has Mass   12.00000
   Atom    3 Element C  Has Mass   12.00000
   Atom    4 Element C  Has Mass   12.00000
   Atom    5 Element C  Has Mass   12.00000
   Atom    6 Element N  Has Mass   14.00307
   Atom    7 Element H  Has Mass    1.00783
   Atom    8 Element H  Has Mass    1.00783
   Atom    9 Element H  Has Mass    1.00783
   Atom   10 Element H  Has Mass    1.00783
   Atom   11 Element H  Has Mass    1.00783
   Atom   12 Element C  Has Mass   12.00000
   Atom   13 Element H  Has Mass    1.00783
   Molecular Mass:    92.050050 amu
   Principal axes and moments of inertia in amu*Bohr^2:
                             1           2           3
    Eigenvalues --      364.74349   484.94448   731.90842
          X               0.93096    -0.28265     0.23113
          Y               0.28851     0.95744     0.00878
          Z              -0.22377     0.05851     0.97288
   Rotational Symmetry Number is   1
   The Molecule is an Asymmetric Top
   Translational Enthalpy:        0.889 kcal/mol
   Rotational Enthalpy:           0.889 kcal/mol
   Vibrational Enthalpy:         64.490 kcal/mol
   gas constant (RT):             0.592 kcal/mol
   Translational Entropy:        39.471  cal/mol.K
   Rotational Entropy:           26.362  cal/mol.K
   Vibrational Entropy:           6.355  cal/mol.K

   Total Enthalpy:               66.860 kcal/mol
   Total Entropy:                72.188  cal/mol.K

 Total job time:  633.44s(wall), 551.65s(cpu)
        *  Thank you very much for using Q-Chem.  Have a nice day.  *
