 Q-Chem 5.0, Q-Chem, Inc., Pleasanton, CA (2017)
 Q-Chem 5.0.2 for Intel X86 EM64T Linux

User input:
--------------------------------------------------------------
$molecule
0 2
C        1.6692165194    0.4020421922   -0.3329704537
C        1.1707511343   -0.8601924275   -0.3015675632
C       -0.2646096269   -1.0439326166    0.0199013927
C       -1.1916186055    0.1353965403   -0.3539592033
C       -0.4095048035    1.3527858618   -0.0006395827
N        0.9063419079    1.5095909548   -0.0468451581
H        2.7191364370    0.5993089318   -0.5378579626
H        1.7844943531   -1.7241872301   -0.5380100906
H       -0.6712464107   -2.0417918059   -0.1499796941
H       -2.0792510804    0.1147803293   -0.9825103802
H       -0.9927657722    2.2322221590    0.2726817779
C       -1.0018509631   -0.2433166335    1.0308973090
H       -1.6559786103   -0.4526155401    1.8658382727
$end

$rem
method                b3lyp
basis                 6-31+g(d,p)
unrestricted          true
symmetry              off
sym_ignore            true
incdft                false
incfock               0
scf_convergence       8
thresh                14
jobtype               ts
scf_guess             read
scf_algorithm         diis
max_scf_cycles        100
geom_opt_max_cycles   500
geom_opt_dmax         100
geom_opt_tol_gradient 10
geom_opt_hessian      read
$end

--------------------------------------------------------------

    2    -286.8545880859      9.80E-10 Convergence criterion met
 Total energy in the final basis set = -286.85458809
   12    -286.8546157928      8.11E-09 Convergence criterion met
 Total energy in the final basis set = -286.85461579

             Standard Nuclear Orientation (Angstroms)
    I     Atom           X                Y                Z
 ----------------------------------------------------------------
    1      C       1.6714095739     0.4022340436    -0.3317755981
    2      C       1.1704669718    -0.8613224022    -0.3021162924
    3      C      -0.2648978454    -1.0449452337     0.0176595293
    4      C      -1.1913226181     0.1363106710    -0.3556336152
    5      C      -0.4122905654     1.3537113278     0.0009797587
    6      N       0.9051474290     1.5085071675    -0.0475400404
    7      H       2.7203755964     0.5994431778    -0.5350941484
    8      H       1.7844753939    -1.7246853940    -0.5385708430
    9      H      -0.6709013274    -2.0429146369    -0.1506274993
   10      H      -2.0804776141     0.1163024159    -0.9806780761
   11      H      -0.9941606087     2.2344791840     0.2694725072
   12      C      -1.0017788403    -0.2465907358     1.0305851954
   13      H      -1.6529310666    -0.4504388696     1.8683177860
 ----------------------------------------------------------------

    7    -286.8546157959      7.36E-09 Convergence criterion met
 Total energy in the final basis set = -286.85461580
 Final energy is   -286.854615795865
 **  OPTIMIZATION CONVERGED  **

                    Orbital Energies (a.u.)
 --------------------------------------------------------------

 Alpha MOs
 -- Occupied --
-14.338 -10.252 -10.231 -10.230 -10.227 -10.216 -10.204  -0.960
 -0.885  -0.777  -0.661  -0.646  -0.591  -0.544  -0.506  -0.491
 -0.461  -0.422  -0.397  -0.382  -0.360  -0.312  -0.272  -0.254
 -0.197

 Beta MOs
 -- Occupied --
-14.331 -10.255 -10.232 -10.226 -10.221 -10.218 -10.200  -0.952
 -0.874  -0.773  -0.653  -0.644  -0.577  -0.540  -0.504  -0.484
 -0.457  -0.418  -0.394  -0.370  -0.348  -0.302  -0.265  -0.234

          Ground-State Mulliken Net Atomic Charges

     Atom                 Charge (a.u.)    Spin (a.u.)
  --------------------------------------------------------
      1 C                    -0.305967      -0.163554
      2 C                     0.280401       0.333765
      3 C                    -0.389381      -0.049508
      4 C                     0.239458       0.022890
      5 C                    -0.362531      -0.181063
      6 N                    -0.101789       0.342436
      7 H                     0.126896       0.008453
      8 H                     0.127824      -0.014556
      9 H                     0.140077       0.017466
     10 H                     0.139004       0.002143
     11 H                     0.143893       0.009387
     12 C                    -0.181231       0.694102
     13 H                     0.143348      -0.021960
  --------------------------------------------------------
  Sum of atomic charges =    -0.000000

                    Cartesian Multipole Moments
 -----------------------------------------------------------------
    Charge (ESU x 10^10)
                -0.0000
    Dipole Moment (Debye)
         X      -2.0478      Y      -2.0996      Z      -0.3628
       Tot       2.9552
    Quadrupole Moments (Debye-Ang)
        XX     -37.9834     XY      -3.3925     YY     -42.9772
        XZ      -1.5469     YZ      -0.1230     ZZ     -43.0570

 Total job time:  119.18s(wall), 163.92s(cpu)
        *  Thank you very much for using Q-Chem.  Have a nice day.  *
