 Q-Chem 5.0, Q-Chem, Inc., Pleasanton, CA (2017)
 Q-Chem 5.0.2 for Intel X86 EM64T Linux

User input:
--------------------------------------------------------------
$molecule
0 2
C        1.6692165194    0.4020421922   -0.3329704537
C        1.1707511343   -0.8601924275   -0.3015675632
C       -0.2646096269   -1.0439326166    0.0199013927
C       -1.1916186055    0.1353965403   -0.3539592033
C       -0.4095048035    1.3527858618   -0.0006395827
N        0.9063419079    1.5095909548   -0.0468451581
H        2.7191364370    0.5993089318   -0.5378579626
H        1.7844943531   -1.7241872301   -0.5380100906
H       -0.6712464107   -2.0417918059   -0.1499796941
H       -2.0792510804    0.1147803293   -0.9825103802
H       -0.9927657722    2.2322221590    0.2726817779
C       -1.0018509631   -0.2433166335    1.0308973090
H       -1.6559786103   -0.4526155401    1.8658382727
$end

$rem
method                b3lyp
basis                 6-31+g(d,p)
unrestricted          true
symmetry              off
sym_ignore            true
incdft                false
incfock               0
scf_convergence       6
thresh                14
jobtype               sp
scf_guess             read
scf_algorithm         diis
max_scf_cycles        100
stability_analysis    true
max_cis_cycles        100
cis_n_roots           4
$end

--------------------------------------------------------------

             Standard Nuclear Orientation (Angstroms)
    I     Atom           X                Y                Z
 ----------------------------------------------------------------
    1      C       1.6692165194     0.4020421922    -0.3329704537
    2      C       1.1707511343    -0.8601924275    -0.3015675632
    3      C      -0.2646096269    -1.0439326166     0.0199013927
    4      C      -1.1916186055     0.1353965403    -0.3539592033
    5      C      -0.4095048035     1.3527858618    -0.0006395827
    6      N       0.9063419079     1.5095909548    -0.0468451581
    7      H       2.7191364370     0.5993089318    -0.5378579626
    8      H       1.7844943531    -1.7241872301    -0.5380100906
    9      H      -0.6712464107    -2.0417918059    -0.1499796941
   10      H      -2.0792510804     0.1147803293    -0.9825103802
   11      H      -0.9927657722     2.2322221590     0.2726817779
   12      C      -1.0018509631    -0.2433166335     1.0308973090
   13      H      -1.6559786103    -0.4526155401     1.8658382727
 ----------------------------------------------------------------

    2    -286.8545880859      2.88E-09 Convergence criterion met
 Total energy in the final basis set = -286.85458809

         TDDFT/TDA Excitation Energies
 ---------------------------------------------------

 Excited state   1: excitation energy (eV) =    2.2664
 Total energy for state  1:                  -286.77129961 au
    <S**2>     :  0.8229
    Trans. Mom.: -0.3905 X   0.0919 Y   0.1243 Z
    Strength   :     0.0097944998
    S(  1) --> V(  1) amplitude =  0.3416 alpha
    D( 24) --> S(  1) amplitude =  0.9203 beta

 Excited state   2: excitation energy (eV) =    2.9780
 Total energy for state  2:                  -286.74514973 au
    <S**2>     :  0.8843
    Trans. Mom.: -0.0732 X   0.0440 Y   0.0493 Z
    Strength   :     0.0007094453
    S(  1) --> V(  1) amplitude =  0.4596 alpha
    D( 23) --> S(  1) amplitude =  0.8687 beta

 Excited state   3: excitation energy (eV) =    3.4343
 Total energy for state  3:                  -286.72838095 au
    <S**2>     :  0.9047
    Trans. Mom.:  0.5444 X  -0.1615 Y  -0.3407 Z
    Strength   :     0.0368933154
    S(  1) --> V(  1) amplitude =  0.7810 alpha
    D( 21) --> S(  1) amplitude =  0.1550 beta
    D( 23) --> S(  1) amplitude = -0.4431 beta
    D( 24) --> S(  1) amplitude = -0.3267 beta

 Excited state   4: excitation energy (eV) =    3.9785
 Total energy for state  4:                  -286.70837966 au
    <S**2>     :  2.3125
    Trans. Mom.: -0.1174 X   0.1508 Y   0.0678 Z
    Strength   :     0.0040085590
    D( 23) --> V(  1) amplitude =  0.2118 alpha
    D( 24) --> V(  1) amplitude = -0.5222 alpha
    S(  1) --> V(  1) amplitude = -0.1707 alpha
    D( 22) --> S(  1) amplitude = -0.2218 beta
    D( 24) --> V(  1) amplitude = -0.6998 beta

 ---------------------------------------------------

                    Orbital Energies (a.u.)
 --------------------------------------------------------------

 Alpha MOs
 -- Occupied --
-14.338 -10.252 -10.231 -10.230 -10.227 -10.216 -10.204  -0.960
 -0.886  -0.778  -0.661  -0.646  -0.591  -0.545  -0.505  -0.491
 -0.461  -0.422  -0.397  -0.382  -0.359  -0.312  -0.273  -0.255
 -0.197

 Beta MOs
 -- Occupied --
-14.332 -10.255 -10.231 -10.226 -10.221 -10.217 -10.200  -0.953
 -0.875  -0.773  -0.653  -0.644  -0.577  -0.540  -0.503  -0.484
 -0.457  -0.417  -0.394  -0.370  -0.348  -0.302  -0.265  -0.234

          Ground-State Mulliken Net Atomic Charges

     Atom                 Charge (a.u.)    Spin (a.u.)
  --------------------------------------------------------
      1 C                    -0.306378      -0.161716
      2 C                     0.281724       0.330518
      3 C                    -0.391047      -0.047986
      4 C                     0.239998       0.023029
      5 C                    -0.360926      -0.180502
      6 N                    -0.101118       0.341875
      7 H                     0.126577       0.008440
      8 H                     0.127989      -0.014435
      9 H                     0.139872       0.017294
     10 H                     0.139006       0.002085
     11 H                     0.143655       0.009359
     12 C                    -0.182629       0.693753
     13 H                     0.143277      -0.021714
  --------------------------------------------------------
  Sum of atomic charges =     0.000000

                    Cartesian Multipole Moments
 -----------------------------------------------------------------
    Charge (ESU x 10^10)
                 0.0000
    Dipole Moment (Debye)
         X      -2.0468      Y      -2.1012      Z      -0.3717
       Tot       2.9568
    Quadrupole Moments (Debye-Ang)
        XX     -37.9970     XY      -3.3774     YY     -42.9866
        XZ      -1.5396     YZ      -0.1236     ZZ     -43.0556

 Total job time:  315.59s(wall), 201.68s(cpu)
        *  Thank you very much for using Q-Chem.  Have a nice day.  *
