 Q-Chem 5.0, Q-Chem, Inc., Pleasanton, CA (2017)
 Q-Chem 5.0.2 for Intel X86 EM64T Linux

User input:
--------------------------------------------------------------
$molecule
0 2
C        1.6692165194    0.4020421922   -0.3329704537
C        1.1707511343   -0.8601924275   -0.3015675632
C       -0.2646096269   -1.0439326166    0.0199013927
C       -1.1916186055    0.1353965403   -0.3539592033
C       -0.4095048035    1.3527858618   -0.0006395827
N        0.9063419079    1.5095909548   -0.0468451581
H        2.7191364370    0.5993089318   -0.5378579626
H        1.7844943531   -1.7241872301   -0.5380100906
H       -0.6712464107   -2.0417918059   -0.1499796941
H       -2.0792510804    0.1147803293   -0.9825103802
H       -0.9927657722    2.2322221590    0.2726817779
C       -1.0018509631   -0.2433166335    1.0308973090
H       -1.6559786103   -0.4526155401    1.8658382727
$end

$rem
method                b3lyp
basis                 6-31g(d)
unrestricted          true
symmetry              off
sym_ignore            true
incdft                false
incfock               0
scf_convergence       6
thresh                14
jobtype               sp
scf_guess             read
scf_algorithm         diis
max_scf_cycles        100
stability_analysis    true
max_cis_cycles        100
cis_n_roots           4
$end

--------------------------------------------------------------

             Standard Nuclear Orientation (Angstroms)
    I     Atom           X                Y                Z
 ----------------------------------------------------------------
    1      C       1.6692165194     0.4020421922    -0.3329704537
    2      C       1.1707511343    -0.8601924275    -0.3015675632
    3      C      -0.2646096269    -1.0439326166     0.0199013927
    4      C      -1.1916186055     0.1353965403    -0.3539592033
    5      C      -0.4095048035     1.3527858618    -0.0006395827
    6      N       0.9063419079     1.5095909548    -0.0468451581
    7      H       2.7191364370     0.5993089318    -0.5378579626
    8      H       1.7844943531    -1.7241872301    -0.5380100906
    9      H      -0.6712464107    -2.0417918059    -0.1499796941
   10      H      -2.0792510804     0.1147803293    -0.9825103802
   11      H      -0.9927657722     2.2322221590     0.2726817779
   12      C      -1.0018509631    -0.2433166335     1.0308973090
   13      H      -1.6559786103    -0.4526155401     1.8658382727
 ----------------------------------------------------------------

    2    -286.8326171895      1.64E-09 Convergence criterion met
 Total energy in the final basis set = -286.83261719

         TDDFT/TDA Excitation Energies
 ---------------------------------------------------

 Excited state   1: excitation energy (eV) =    2.3121
 Total energy for state  1:                  -286.74764985 au
    <S**2>     :  0.8294
    Trans. Mom.: -0.3619 X   0.0775 Y   0.1097 Z
    Strength   :     0.0084408208
    S(  1) --> V(  1) amplitude =  0.3413 alpha
    D( 24) --> S(  1) amplitude =  0.9216 beta

 Excited state   2: excitation energy (eV) =    3.0328
 Total energy for state  2:                  -286.72116480 au
    <S**2>     :  0.8946
    Trans. Mom.: -0.1086 X   0.0487 Y   0.0517 Z
    Strength   :     0.0012505512
    S(  1) --> V(  1) amplitude =  0.4381 alpha
    D( 23) --> S(  1) amplitude =  0.8820 beta

 Excited state   3: excitation energy (eV) =    3.5856
 Total energy for state  3:                  -286.70085014 au
    <S**2>     :  0.9657
    Trans. Mom.:  0.4999 X  -0.1709 Y  -0.3443 Z
    Strength   :     0.0349318329
    S(  1) --> V(  1) amplitude =  0.7785 alpha
    D( 21) --> S(  1) amplitude =  0.1743 beta
    D( 23) --> S(  1) amplitude = -0.4099 beta
    D( 24) --> S(  1) amplitude = -0.3227 beta
    D( 24) --> V(  1) amplitude = -0.1595 beta

 Excited state   4: excitation energy (eV) =    4.0843
 Total energy for state  4:                  -286.68252129 au
    <S**2>     :  2.2381
    Trans. Mom.: -0.1398 X   0.1544 Y   0.0911 Z
    Strength   :     0.0051721157
    D( 23) --> V(  1) amplitude =  0.2456 alpha
    D( 24) --> V(  1) amplitude = -0.5193 alpha
    S(  1) --> V(  1) amplitude = -0.2210 alpha
    S(  1) --> V(  2) amplitude =  0.1828 alpha
    D( 22) --> S(  1) amplitude = -0.2421 beta
    D( 24) --> V(  1) amplitude = -0.6847 beta

 ---------------------------------------------------

                    Orbital Energies (a.u.)
 --------------------------------------------------------------

 Alpha MOs
 -- Occupied --
-14.324 -10.242 -10.221 -10.219 -10.216 -10.205 -10.193  -0.948
 -0.874  -0.767  -0.651  -0.636  -0.582  -0.536  -0.498  -0.480
 -0.452  -0.412  -0.388  -0.372  -0.349  -0.302  -0.261  -0.243
 -0.185

 Beta MOs
 -- Occupied --
-14.317 -10.244 -10.221 -10.216 -10.209 -10.207 -10.189  -0.940
 -0.863  -0.762  -0.643  -0.634  -0.568  -0.532  -0.496  -0.473
 -0.449  -0.408  -0.385  -0.359  -0.337  -0.291  -0.253  -0.222

          Ground-State Mulliken Net Atomic Charges

     Atom                 Charge (a.u.)    Spin (a.u.)
  --------------------------------------------------------
      1 C                     0.000207      -0.147408
      2 C                    -0.070362       0.310711
      3 C                    -0.188009      -0.032263
      4 C                    -0.126113       0.039053
      5 C                     0.027212      -0.173370
      6 N                    -0.374655       0.342174
      7 H                     0.136927       0.008572
      8 H                     0.133560      -0.014335
      9 H                     0.151390       0.016986
     10 H                     0.152905       0.001813
     11 H                     0.153340       0.010070
     12 C                    -0.154435       0.661031
     13 H                     0.158032      -0.023034
  --------------------------------------------------------
  Sum of atomic charges =    -0.000000

                    Cartesian Multipole Moments
 -----------------------------------------------------------------
    Charge (ESU x 10^10)
                -0.0000
    Dipole Moment (Debye)
         X      -1.8603      Y      -1.9331      Z      -0.3468
       Tot       2.7052
    Quadrupole Moments (Debye-Ang)
        XX     -36.9865     XY      -3.0268     YY     -41.5346
        XZ      -1.4967     YZ      -0.0396     ZZ     -41.4959

 Total job time:  140.10s(wall), 83.99s(cpu)
        *  Thank you very much for using Q-Chem.  Have a nice day.  *
