 Q-Chem 5.0, Q-Chem, Inc., Pleasanton, CA (2017)
 Q-Chem 5.0.2 for Intel X86 EM64T Linux

User input:
--------------------------------------------------------------
$molecule
0 2
C        1.6721228338    0.3870308682   -0.2802061979
C        1.1711266804   -0.8636996117   -0.3050175229
C       -0.2688433663   -1.1022679619   -0.0296518096
C       -1.1789109679    0.1015315289   -0.2898536928
C       -0.3895785923    1.4299737547   -0.0598731150
N        0.9043856560    1.5193061529   -0.0193946534
H        2.7289365582    0.5734337175   -0.4486294797
H        1.8054051068   -1.6858640299   -0.6317299114
H       -0.6112385242   -2.0789213698   -0.3951968561
H       -2.1535933938   -0.1199415608   -0.7406978422
H       -0.9166146584    2.3626959161    0.1982766500
C       -1.0022279484   -0.3082203469    1.0936781214
H       -1.7778549049   -0.2349663420    1.8532749734
$end

$rem
method                b3lyp
basis                 6-31g(d)
unrestricted          true
symmetry              off
sym_ignore            true
incdft                false
incfock               0
scf_convergence       8
thresh                14
jobtype               freq
scf_guess             read
scf_algorithm         diis
max_scf_cycles        100
$end

--------------------------------------------------------------

             Standard Nuclear Orientation (Angstroms)
    I     Atom           X                Y                Z
 ----------------------------------------------------------------
    1      C       1.6721228338     0.3870308682    -0.2802061979
    2      C       1.1711266804    -0.8636996117    -0.3050175229
    3      C      -0.2688433663    -1.1022679619    -0.0296518096
    4      C      -1.1789109679     0.1015315289    -0.2898536928
    5      C      -0.3895785923     1.4299737547    -0.0598731150
    6      N       0.9043856560     1.5193061529    -0.0193946534
    7      H       2.7289365582     0.5734337175    -0.4486294797
    8      H       1.8054051068    -1.6858640299    -0.6317299114
    9      H      -0.6112385242    -2.0789213698    -0.3951968561
   10      H      -2.1535933938    -0.1199415608    -0.7406978422
   11      H      -0.9166146584     2.3626959161     0.1982766500
   12      C      -1.0022279484    -0.3082203469     1.0936781214
   13      H      -1.7778549049    -0.2349663420     1.8532749734
 ----------------------------------------------------------------

    2    -286.8158811166      1.52E-09 Convergence criterion met
 Total energy in the final basis set = -286.81588112

                    Orbital Energies (a.u.)
 --------------------------------------------------------------

 Alpha MOs
 -- Occupied --
-14.325 -10.248 -10.231 -10.218 -10.215 -10.204 -10.192  -0.940
 -0.866  -0.766  -0.649  -0.628  -0.578  -0.531  -0.496  -0.483
 -0.445  -0.418  -0.383  -0.370  -0.339  -0.302  -0.256  -0.240
 -0.192

 Beta MOs
 -- Occupied --
-14.321 -10.249 -10.231 -10.215 -10.206 -10.205 -10.190  -0.934
 -0.856  -0.763  -0.645  -0.624  -0.559  -0.526  -0.494  -0.477
 -0.442  -0.415  -0.380  -0.362  -0.330  -0.295  -0.252  -0.217

          Ground-State Mulliken Net Atomic Charges

     Atom                 Charge (a.u.)    Spin (a.u.)
  --------------------------------------------------------
      1 C                    -0.002880      -0.091803
      2 C                    -0.073713       0.160923
      3 C                    -0.184526      -0.043444
      4 C                    -0.162966      -0.016648
      5 C                     0.056436      -0.114024
      6 N                    -0.376107       0.200437
      7 H                     0.138391       0.005519
      8 H                     0.134029      -0.006310
      9 H                     0.153420       0.022514
     10 H                     0.158908       0.014563
     11 H                     0.155344       0.010010
     12 C                    -0.159630       0.888705
     13 H                     0.163294      -0.030443
  --------------------------------------------------------
  Sum of atomic charges =    -0.000000

                    Cartesian Multipole Moments
 -----------------------------------------------------------------
    Charge (ESU x 10^10)
                -0.0000
    Dipole Moment (Debye)
         X      -1.9333      Y      -1.6043      Z      -0.5705
       Tot       2.5762
    Quadrupole Moments (Debye-Ang)
        XX     -36.5916     XY      -3.0918     YY     -41.3617
        XZ      -1.8437     YZ       1.3026     ZZ     -42.2404

 Frequency:      -282.96                 294.84                 358.47
 Force Cnst:      0.1654                 0.1176                 0.1356
 Red. Mass:       3.5063                 2.2957                 1.7906
 IR Intens:        1.162                  5.374                 36.875
 Frequency:       410.66                 512.88                 545.43
 Force Cnst:      0.2251                 0.8092                 1.1740
 Red. Mass:       2.2653                 5.2212                 6.6976
 IR Intens:        5.418                  4.704                  9.431
 Frequency:       643.14                 674.66                 733.54
 Force Cnst:      0.6395                 1.2213                 0.7989
 Red. Mass:       2.6242                 4.5539                 2.5201
 IR Intens:       23.993                  1.275                 13.268
 Frequency:       783.96                 858.77                 890.15
 Force Cnst:      0.6971                 0.7464                 0.9345
 Red. Mass:       1.9250                 1.7177                 2.0018
 IR Intens:       28.754                  7.508                 12.194
 Frequency:       931.89                 950.23                 956.61
 Force Cnst:      0.8699                 0.9194                 0.8801
 Red. Mass:       1.7001                 1.7282                 1.6324
 IR Intens:        2.794                  6.622                  5.048
 Frequency:      1002.84                1041.67                1074.35
 Force Cnst:      1.2273                 1.0366                 1.3472
 Red. Mass:       2.0712                 1.6215                 1.9811
 IR Intens:        0.300                  2.956                  5.740
 Frequency:      1093.46                1200.38                1232.77
 Force Cnst:      1.2040                 1.4239                 1.0780
 Red. Mass:       1.7091                 1.6772                 1.2040
 IR Intens:       22.120                  2.840                  4.254
 Frequency:      1283.94                1349.90                1409.17
 Force Cnst:      1.7000                 1.6616                 1.6507
 Red. Mass:       1.7503                 1.5476                 1.4109
 IR Intens:        9.805                  6.259                  5.487
 Frequency:      1442.00                1520.59                1655.37
 Force Cnst:      2.0133                 8.6999                 8.7299
 Red. Mass:       1.6433                 6.3862                 5.4072
 IR Intens:        1.896                 21.085                 18.708
 Frequency:      3056.45                3074.43                3082.38
 Force Cnst:      5.9958                 6.0496                 6.0991
 Red. Mass:       1.0893                 1.0863                 1.0895
 IR Intens:       20.189                 11.696                 27.134
 Frequency:      3173.99                3190.98                3206.85
 Force Cnst:      6.4543                 6.5634                 6.6384
 Red. Mass:       1.0874                 1.0940                 1.0956
 IR Intens:        6.671                  1.215                 36.973

 STANDARD THERMODYNAMIC QUANTITIES AT   298.15 K  AND     1.00 ATM

   This Molecule has  1 Imaginary Frequencies
   Zero point vibrational energy:       62.382 kcal/mol

   Atom    1 Element C  Has Mass   12.00000
   Atom    2 Element C  Has Mass   12.00000
   Atom    3 Element C  Has Mass   12.00000
   Atom    4 Element C  Has Mass   12.00000
   Atom    5 Element C  Has Mass   12.00000
   Atom    6 Element N  Has Mass   14.00307
   Atom    7 Element H  Has Mass    1.00783
   Atom    8 Element H  Has Mass    1.00783
   Atom    9 Element H  Has Mass    1.00783
   Atom   10 Element H  Has Mass    1.00783
   Atom   11 Element H  Has Mass    1.00783
   Atom   12 Element C  Has Mass   12.00000
   Atom   13 Element H  Has Mass    1.00783
   Molecular Mass:    92.050050 amu
   Principal axes and moments of inertia in amu*Bohr^2:
                             1           2           3
    Eigenvalues --      380.69168   491.35634   752.91352
          X               0.90610    -0.35043     0.23705
          Y               0.36212     0.93211    -0.00622
          Z              -0.21878     0.09148     0.97148
   Rotational Symmetry Number is   1
   The Molecule is an Asymmetric Top
   Translational Enthalpy:        0.889 kcal/mol
   Rotational Enthalpy:           0.889 kcal/mol
   Vibrational Enthalpy:         63.874 kcal/mol
   gas constant (RT):             0.592 kcal/mol
   Translational Entropy:        39.471  cal/mol.K
   Rotational Entropy:           26.446  cal/mol.K
   Vibrational Entropy:           7.028  cal/mol.K

   Total Enthalpy:               66.244 kcal/mol
   Total Entropy:                72.945  cal/mol.K

 Total job time:  315.27s(wall), 258.85s(cpu)
        *  Thank you very much for using Q-Chem.  Have a nice day.  *
