 Q-Chem 5.0, Q-Chem, Inc., Pleasanton, CA (2017)
 Q-Chem 5.0.2 for Intel X86 EM64T Linux

User input:
--------------------------------------------------------------
$molecule
0 2
C        1.6714095739    0.4022340436   -0.3317755981
C        1.1704669718   -0.8613224022   -0.3021162924
C       -0.2648978454   -1.0449452337    0.0176595293
C       -1.1913226181    0.1363106710   -0.3556336152
C       -0.4122905654    1.3537113278    0.0009797587
N        0.9051474290    1.5085071675   -0.0475400404
H        2.7203755964    0.5994431778   -0.5350941484
H        1.7844753939   -1.7246853940   -0.5385708430
H       -0.6709013274   -2.0429146369   -0.1506274993
H       -2.0804776141    0.1163024159   -0.9806780761
H       -0.9941606087    2.2344791840    0.2694725072
C       -1.0017788403   -0.2465907358    1.0305851954
H       -1.6529310666   -0.4504388696    1.8683177860
$end

$rem
method                b3lyp
basis                 6-31+g(d,p)
unrestricted          true
symmetry              off
sym_ignore            true
incdft                false
incfock               0
scf_convergence       8
thresh                14
jobtype               freq
scf_guess             read
scf_algorithm         diis
max_scf_cycles        100
$end

--------------------------------------------------------------

             Standard Nuclear Orientation (Angstroms)
    I     Atom           X                Y                Z
 ----------------------------------------------------------------
    1      C       1.6714095739     0.4022340436    -0.3317755981
    2      C       1.1704669718    -0.8613224022    -0.3021162924
    3      C      -0.2648978454    -1.0449452337     0.0176595293
    4      C      -1.1913226181     0.1363106710    -0.3556336152
    5      C      -0.4122905654     1.3537113278     0.0009797587
    6      N       0.9051474290     1.5085071675    -0.0475400404
    7      H       2.7203755964     0.5994431778    -0.5350941484
    8      H       1.7844753939    -1.7246853940    -0.5385708430
    9      H      -0.6709013274    -2.0429146369    -0.1506274993
   10      H      -2.0804776141     0.1163024159    -0.9806780761
   11      H      -0.9941606087     2.2344791840     0.2694725072
   12      C      -1.0017788403    -0.2465907358     1.0305851954
   13      H      -1.6529310666    -0.4504388696     1.8683177860
 ----------------------------------------------------------------

    2    -286.8546157959      1.68E-10 Convergence criterion met
 Total energy in the final basis set = -286.85461580

                    Orbital Energies (a.u.)
 --------------------------------------------------------------

 Alpha MOs
 -- Occupied --
-14.338 -10.252 -10.231 -10.230 -10.227 -10.216 -10.204  -0.960
 -0.885  -0.777  -0.661  -0.646  -0.591  -0.544  -0.506  -0.491
 -0.461  -0.422  -0.397  -0.382  -0.360  -0.312  -0.272  -0.254
 -0.197

 Beta MOs
 -- Occupied --
-14.331 -10.255 -10.232 -10.226 -10.221 -10.218 -10.200  -0.952
 -0.874  -0.773  -0.653  -0.644  -0.577  -0.540  -0.504  -0.484
 -0.457  -0.418  -0.394  -0.370  -0.348  -0.302  -0.265  -0.234

          Ground-State Mulliken Net Atomic Charges

     Atom                 Charge (a.u.)    Spin (a.u.)
  --------------------------------------------------------
      1 C                    -0.305967      -0.163555
      2 C                     0.280401       0.333767
      3 C                    -0.389381      -0.049509
      4 C                     0.239458       0.022890
      5 C                    -0.362531      -0.181064
      6 N                    -0.101789       0.342436
      7 H                     0.126896       0.008453
      8 H                     0.127824      -0.014557
      9 H                     0.140077       0.017466
     10 H                     0.139004       0.002143
     11 H                     0.143893       0.009387
     12 C                    -0.181231       0.694102
     13 H                     0.143348      -0.021960
  --------------------------------------------------------
  Sum of atomic charges =     0.000000

                    Cartesian Multipole Moments
 -----------------------------------------------------------------
    Charge (ESU x 10^10)
                 0.0000
    Dipole Moment (Debye)
         X      -2.0478      Y      -2.0996      Z      -0.3628
       Tot       2.9552
    Quadrupole Moments (Debye-Ang)
        XX     -37.9834     XY      -3.3925     YY     -42.9772
        XZ      -1.5469     YZ      -0.1230     ZZ     -43.0570

 Frequency:      -599.52                 306.25                 350.85
 Force Cnst:      1.1541                 0.1735                 0.2017
 Red. Mass:       5.4497                 3.1393                 2.7812
 IR Intens:        7.445                  2.677                 16.845
 Frequency:       523.62                 551.72                 555.38
 Force Cnst:      0.3577                 0.5195                 0.5654
 Red. Mass:       2.2141                 2.8969                 3.1110
 IR Intens:       17.494                 13.404                 14.364
 Frequency:       674.19                 718.05                 755.38
 Force Cnst:      1.1068                 0.5996                 0.5349
 Red. Mass:       4.1331                 1.9737                 1.5911
 IR Intens:        1.224                  7.988                 53.725
 Frequency:       812.87                 879.55                 901.47
 Force Cnst:      0.5515                 2.0696                 0.6142
 Red. Mass:       1.4167                 4.5406                 1.2827
 IR Intens:       13.045                  4.485                  2.178
 Frequency:       955.77                 964.56                 985.23
 Force Cnst:      0.7532                 0.8117                 1.2534
 Red. Mass:       1.3994                 1.4807                 2.1917
 IR Intens:        1.542                  7.231                 35.043
 Frequency:      1017.00                1027.71                1059.72
 Force Cnst:      2.1864                 1.2427                 0.9706
 Red. Mass:       3.5880                 1.9970                 1.4669
 IR Intens:        1.520                  6.924                  2.565
 Frequency:      1104.83                1185.50                1211.85
 Force Cnst:      1.3602                 1.4204                 1.2097
 Red. Mass:       1.8912                 1.7154                 1.3981
 IR Intens:        4.099                  4.350                  9.404
 Frequency:      1291.68                1344.67                1367.99
 Force Cnst:      1.7718                 3.9016                 1.6382
 Red. Mass:       1.8024                 3.6623                 1.4858
 IR Intens:        7.495                  3.678                  6.852
 Frequency:      1435.93                1456.66                1589.37
 Force Cnst:      2.1416                 2.7713                 6.9254
 Red. Mass:       1.7629                 2.2167                 4.6531
 IR Intens:        0.343                  1.476                 20.138
 Frequency:      3128.20                3157.75                3164.53
 Force Cnst:      6.2641                 6.3947                 6.4420
 Red. Mass:       1.0865                 1.0885                 1.0918
 IR Intens:       13.537                 13.566                 27.508
 Frequency:      3184.42                3208.00                3256.24
 Force Cnst:      6.4940                 6.6509                 6.8537
 Red. Mass:       1.0869                 1.0969                 1.0971
 IR Intens:        9.689                 22.990                  0.110

 STANDARD THERMODYNAMIC QUANTITIES AT   298.15 K  AND     1.00 ATM

   This Molecule has  1 Imaginary Frequencies
   Zero point vibrational energy:       63.083 kcal/mol

   Atom    1 Element C  Has Mass   12.00000
   Atom    2 Element C  Has Mass   12.00000
   Atom    3 Element C  Has Mass   12.00000
   Atom    4 Element C  Has Mass   12.00000
   Atom    5 Element C  Has Mass   12.00000
   Atom    6 Element N  Has Mass   14.00307
   Atom    7 Element H  Has Mass    1.00783
   Atom    8 Element H  Has Mass    1.00783
   Atom    9 Element H  Has Mass    1.00783
   Atom   10 Element H  Has Mass    1.00783
   Atom   11 Element H  Has Mass    1.00783
   Atom   12 Element C  Has Mass   12.00000
   Atom   13 Element H  Has Mass    1.00783
   Molecular Mass:    92.050050 amu
   Principal axes and moments of inertia in amu*Bohr^2:
                             1           2           3
    Eigenvalues --      365.25951   485.12983   732.43721
          X               0.93140    -0.28160     0.23063
          Y               0.28738     0.95777     0.00883
          Z              -0.22337     0.05805     0.97300
   Rotational Symmetry Number is   1
   The Molecule is an Asymmetric Top
   Translational Enthalpy:        0.889 kcal/mol
   Rotational Enthalpy:           0.889 kcal/mol
   Vibrational Enthalpy:         64.456 kcal/mol
   gas constant (RT):             0.592 kcal/mol
   Translational Entropy:        39.471  cal/mol.K
   Rotational Entropy:           26.365  cal/mol.K
   Vibrational Entropy:           6.395  cal/mol.K

   Total Enthalpy:               66.825 kcal/mol
   Total Entropy:                72.230  cal/mol.K

 Total job time:  638.36s(wall), 551.84s(cpu)
        *  Thank you very much for using Q-Chem.  Have a nice day.  *
