 Q-Chem 5.0, Q-Chem, Inc., Pleasanton, CA (2017)
 Q-Chem 5.0.2 for Intel X86 EM64T Linux

User input:
--------------------------------------------------------------
$molecule
0 2
C        1.6721228338    0.3870308682   -0.2802061979
C        1.1711266804   -0.8636996117   -0.3050175229
C       -0.2688433663   -1.1022679619   -0.0296518096
C       -1.1789109679    0.1015315289   -0.2898536928
C       -0.3895785923    1.4299737547   -0.0598731150
N        0.9043856560    1.5193061529   -0.0193946534
H        2.7289365582    0.5734337175   -0.4486294797
H        1.8054051068   -1.6858640299   -0.6317299114
H       -0.6112385242   -2.0789213698   -0.3951968561
H       -2.1535933938   -0.1199415608   -0.7406978422
H       -0.9166146584    2.3626959161    0.1982766500
C       -1.0022279484   -0.3082203469    1.0936781214
H       -1.7778549049   -0.2349663420    1.8532749734
$end

$rem
method                b3lyp
basis                 6-31g(d)
unrestricted          true
symmetry              off
sym_ignore            true
incdft                false
incfock               0
scf_convergence       6
thresh                14
jobtype               sp
scf_guess             read
scf_algorithm         diis
max_scf_cycles        100
stability_analysis    true
max_cis_cycles        100
cis_n_roots           4
$end

--------------------------------------------------------------

             Standard Nuclear Orientation (Angstroms)
    I     Atom           X                Y                Z
 ----------------------------------------------------------------
    1      C       1.6721228338     0.3870308682    -0.2802061979
    2      C       1.1711266804    -0.8636996117    -0.3050175229
    3      C      -0.2688433663    -1.1022679619    -0.0296518096
    4      C      -1.1789109679     0.1015315289    -0.2898536928
    5      C      -0.3895785923     1.4299737547    -0.0598731150
    6      N       0.9043856560     1.5193061529    -0.0193946534
    7      H       2.7289365582     0.5734337175    -0.4486294797
    8      H       1.8054051068    -1.6858640299    -0.6317299114
    9      H      -0.6112385242    -2.0789213698    -0.3951968561
   10      H      -2.1535933938    -0.1199415608    -0.7406978422
   11      H      -0.9166146584     2.3626959161     0.1982766500
   12      C      -1.0022279484    -0.3082203469     1.0936781214
   13      H      -1.7778549049    -0.2349663420     1.8532749734
 ----------------------------------------------------------------

    2    -286.8158811165      4.23E-09 Convergence criterion met
 Total energy in the final basis set = -286.81588112

         TDDFT/TDA Excitation Energies
 ---------------------------------------------------

 Excited state   1: excitation energy (eV) =    2.3435
 Total energy for state  1:                  -286.72976023 au
    <S**2>     :  1.1310
    Trans. Mom.:  0.2479 X  -0.0704 Y  -0.1013 Z
    Strength   :     0.0044019211
    S(  1) --> V(  1) amplitude = -0.4259 alpha
    D( 24) --> S(  1) amplitude =  0.8854 beta

 Excited state   2: excitation energy (eV) =    3.1135
 Total energy for state  2:                  -286.70146352 au
    <S**2>     :  1.2730
    Trans. Mom.:  0.2353 X  -0.0456 Y  -0.1523 Z
    Strength   :     0.0061501911
    D( 24) --> V(  1) amplitude = -0.1825 alpha
    S(  1) --> V(  1) amplitude =  0.7280 alpha
    D( 23) --> S(  1) amplitude = -0.4189 beta
    D( 24) --> S(  1) amplitude =  0.3735 beta
    D( 24) --> V(  1) amplitude = -0.2436 beta

 Excited state   3: excitation energy (eV) =    3.3885
 Total energy for state  3:                  -286.69135500 au
    <S**2>     :  1.2255
    Trans. Mom.:  0.2819 X  -0.1167 Y  -0.1901 Z
    Strength   :     0.0107292442
    S(  1) --> V(  1) amplitude =  0.2942 alpha
    D( 23) --> S(  1) amplitude =  0.8603 beta
    D( 24) --> S(  1) amplitude =  0.1644 beta
    D( 24) --> V(  1) amplitude = -0.2508 beta

 Excited state   4: excitation energy (eV) =    3.7165
 Total energy for state  4:                  -286.67930189 au
    <S**2>     :  1.7755
    Trans. Mom.:  0.1612 X  -0.1387 Y  -0.0544 Z
    Strength   :     0.0043861520
    D( 23) --> V(  1) amplitude = -0.2263 alpha
    D( 24) --> V(  1) amplitude =  0.5276 alpha
    S(  1) --> V(  1) amplitude =  0.4116 alpha
    D( 24) --> V(  1) amplitude =  0.6622 beta

 ---------------------------------------------------

                    Orbital Energies (a.u.)
 --------------------------------------------------------------

 Alpha MOs
 -- Occupied --
-14.325 -10.248 -10.231 -10.218 -10.215 -10.204 -10.192  -0.940
 -0.866  -0.766  -0.649  -0.628  -0.578  -0.531  -0.496  -0.483
 -0.445  -0.418  -0.383  -0.370  -0.339  -0.302  -0.256  -0.240
 -0.192

 Beta MOs
 -- Occupied --
-14.321 -10.249 -10.231 -10.215 -10.206 -10.205 -10.190  -0.934
 -0.856  -0.763  -0.645  -0.624  -0.559  -0.526  -0.494  -0.477
 -0.442  -0.415  -0.380  -0.362  -0.330  -0.295  -0.252  -0.217

          Ground-State Mulliken Net Atomic Charges

     Atom                 Charge (a.u.)    Spin (a.u.)
  --------------------------------------------------------
      1 C                    -0.002880      -0.091804
      2 C                    -0.073713       0.160925
      3 C                    -0.184526      -0.043444
      4 C                    -0.162966      -0.016648
      5 C                     0.056436      -0.114024
      6 N                    -0.376107       0.200437
      7 H                     0.138391       0.005519
      8 H                     0.134029      -0.006310
      9 H                     0.153420       0.022514
     10 H                     0.158908       0.014563
     11 H                     0.155344       0.010010
     12 C                    -0.159630       0.888705
     13 H                     0.163294      -0.030443
  --------------------------------------------------------
  Sum of atomic charges =    -0.000000

                    Cartesian Multipole Moments
 -----------------------------------------------------------------
    Charge (ESU x 10^10)
                 0.0000
    Dipole Moment (Debye)
         X      -1.9333      Y      -1.6043      Z      -0.5705
       Tot       2.5762
    Quadrupole Moments (Debye-Ang)
        XX     -36.5916     XY      -3.0918     YY     -41.3617
        XZ      -1.8437     YZ       1.3026     ZZ     -42.2404

 Total job time:  139.50s(wall), 80.94s(cpu)
        *  Thank you very much for using Q-Chem.  Have a nice day.  *
