 Q-Chem 5.0, Q-Chem, Inc., Pleasanton, CA (2017)
 Q-Chem 5.0.2 for Intel X86 EM64T Linux

User input:
--------------------------------------------------------------
$molecule
0 2
C        1.6721228338    0.3870308682   -0.2802061979
C        1.1711266804   -0.8636996117   -0.3050175229
C       -0.2688433663   -1.1022679619   -0.0296518096
C       -1.1789109679    0.1015315289   -0.2898536928
C       -0.3895785923    1.4299737547   -0.0598731150
N        0.9043856560    1.5193061529   -0.0193946534
H        2.7289365582    0.5734337175   -0.4486294797
H        1.8054051068   -1.6858640299   -0.6317299114
H       -0.6112385242   -2.0789213698   -0.3951968561
H       -2.1535933938   -0.1199415608   -0.7406978422
H       -0.9166146584    2.3626959161    0.1982766500
C       -1.0022279484   -0.3082203469    1.0936781214
H       -1.7778549049   -0.2349663420    1.8532749734
$end

$rem
method                b3lyp
basis                 6-31g(d)
unrestricted          true
symmetry              off
sym_ignore            true
incdft                false
incfock               0
scf_convergence       8
thresh                14
jobtype               ts
scf_guess             read
scf_algorithm         diis
max_scf_cycles        100
geom_opt_max_cycles   500
geom_opt_dmax         100
geom_opt_tol_gradient 10
geom_opt_hessian      read
$end

--------------------------------------------------------------

    2    -286.8158811165      5.66E-10 Convergence criterion met
 Total energy in the final basis set = -286.81588112
   15    -286.8176208940      7.63E-09 Convergence criterion met
 Total energy in the final basis set = -286.81762089
   15    -286.8196967304      6.36E-09 Convergence criterion met
 Total energy in the final basis set = -286.81969673
   15    -286.8218155148      6.09E-09 Convergence criterion met
 Total energy in the final basis set = -286.82181551
   15    -286.8238337265      6.04E-09 Convergence criterion met
 Total energy in the final basis set = -286.82383373
   15    -286.8256381197      5.21E-09 Convergence criterion met
 Total energy in the final basis set = -286.82563812
   15    -286.8271916982      4.49E-09 Convergence criterion met
 Total energy in the final basis set = -286.82719170
   15    -286.8285162291      3.92E-09 Convergence criterion met
   14    -286.8312961434      7.57E-09 Convergence criterion met
 Total energy in the final basis set = -286.83129614
   14    -286.8318646644      6.68E-09 Convergence criterion met
 Total energy in the final basis set = -286.83186466
   14    -286.8322695902      6.30E-09 Convergence criterion met
 Total energy in the final basis set = -286.83226959
   13    -286.8325182892      1.00E-08 Convergence criterion met
 Total energy in the final basis set = -286.83251829
   13    -286.8326154005      9.88E-09 Convergence criterion met
 Total energy in the final basis set = -286.83261540
   11    -286.8326171770      7.94E-09 Convergence criterion met
 Total energy in the final basis set = -286.83261718

             Standard Nuclear Orientation (Angstroms)
    I     Atom           X                Y                Z
 ----------------------------------------------------------------
    1      C       1.6692165194     0.4020421922    -0.3329704537
    2      C       1.1707511343    -0.8601924275    -0.3015675632
    3      C      -0.2646096269    -1.0439326166     0.0199013927
    4      C      -1.1916186055     0.1353965403    -0.3539592033
    5      C      -0.4095048035     1.3527858618    -0.0006395827
    6      N       0.9063419079     1.5095909548    -0.0468451581
    7      H       2.7191364370     0.5993089318    -0.5378579626
    8      H       1.7844943531    -1.7241872301    -0.5380100906
    9      H      -0.6712464107    -2.0417918059    -0.1499796941
   10      H      -2.0792510804     0.1147803293    -0.9825103802
   11      H      -0.9927657722     2.2322221590     0.2726817779
   12      C      -1.0018509631    -0.2433166335     1.0308973090
   13      H      -1.6559786103    -0.4526155401     1.8658382727
 ----------------------------------------------------------------

    8    -286.8326171895      3.43E-09 Convergence criterion met
 Total energy in the final basis set = -286.83261719
 Final energy is   -286.832617189491
 **  OPTIMIZATION CONVERGED  **

                    Orbital Energies (a.u.)
 --------------------------------------------------------------

 Alpha MOs
 -- Occupied --
-14.324 -10.242 -10.221 -10.219 -10.216 -10.205 -10.193  -0.948
 -0.874  -0.767  -0.651  -0.636  -0.582  -0.536  -0.498  -0.480
 -0.452  -0.412  -0.388  -0.372  -0.349  -0.302  -0.261  -0.243
 -0.185

 Beta MOs
 -- Occupied --
-14.317 -10.244 -10.221 -10.216 -10.209 -10.207 -10.189  -0.940
 -0.863  -0.762  -0.643  -0.634  -0.568  -0.532  -0.496  -0.473
 -0.449  -0.408  -0.385  -0.359  -0.337  -0.291  -0.253  -0.222

          Ground-State Mulliken Net Atomic Charges

     Atom                 Charge (a.u.)    Spin (a.u.)
  --------------------------------------------------------
      1 C                     0.000207      -0.147406
      2 C                    -0.070362       0.310709
      3 C                    -0.188009      -0.032262
      4 C                    -0.126113       0.039053
      5 C                     0.027212      -0.173369
      6 N                    -0.374655       0.342173
      7 H                     0.136927       0.008571
      8 H                     0.133560      -0.014334
      9 H                     0.151390       0.016986
     10 H                     0.152905       0.001812
     11 H                     0.153340       0.010070
     12 C                    -0.154434       0.661031
     13 H                     0.158032      -0.023034
  --------------------------------------------------------
  Sum of atomic charges =    -0.000000

                    Cartesian Multipole Moments
 -----------------------------------------------------------------
    Charge (ESU x 10^10)
                -0.0000
    Dipole Moment (Debye)
         X      -1.8603      Y      -1.9331      Z      -0.3468
       Tot       2.7052
    Quadrupole Moments (Debye-Ang)
        XX     -36.9865     XY      -3.0268     YY     -41.5346
        XZ      -1.4967     YZ      -0.0396     ZZ     -41.4959

 Total job time:  671.25s(wall), 741.91s(cpu)
        *  Thank you very much for using Q-Chem.  Have a nice day.  *
