 Q-Chem 5.0, Q-Chem, Inc., Pleasanton, CA (2017)
 Q-Chem 5.0.2 for Intel X86 EM64T Linux

User input:
--------------------------------------------------------------
$molecule
0 2
C        1.3035349115    0.2523066102    0.3291060060
C        0.5913190029   -1.0055985115   -0.2087984477
C       -0.6517611496   -0.3983700877   -0.9062857724
C       -1.0960336310    0.1940264597    0.4023153426
C       -0.4550144255    1.1112153377   -0.6552227711
N        0.8877986525    1.4248347785   -0.3426448046
H        2.3209426189    0.1918218841    0.6997751194
H        1.0959359131   -1.9394821022   -0.4294483782
H       -1.2322645499   -0.8069703200   -1.7257967944
H       -2.0887632482    0.3397693960    0.8132460567
H       -1.0540937113    1.8412841126   -1.1880377433
C        0.1477433481   -0.4135200186    1.0993477139
H        0.2306562686   -0.7913175388    2.1124444732
$end

$rem
method                b3lyp
basis                 6-31g(d)
unrestricted          true
symmetry              off
sym_ignore            true
incdft                false
incfock               0
scf_convergence       8
thresh                14
jobtype               opt
scf_guess             read
scf_algorithm         diis
max_scf_cycles        100
geom_opt_tol_gradient 600
geom_opt_tol_displacement 2400
geom_opt_tol_energy   200
geom_opt_max_cycles   100
$end

--------------------------------------------------------------

    2    -286.8249802177      5.45E-10 Convergence criterion met
 Total energy in the final basis set = -286.82498022
   10    -286.8249843035      3.68E-09 Convergence criterion met
 Total energy in the final basis set = -286.82498430

             Standard Nuclear Orientation (Angstroms)
    I     Atom           X                Y                Z
 ----------------------------------------------------------------
    1      C       1.3037529473     0.2520841170     0.3280775169
    2      C       0.5915594510    -1.0049136563    -0.2092460803
    3      C      -0.6521193976    -0.3968966450    -0.9050186827
    4      C      -1.0962484132     0.1941191817     0.4039889715
    5      C      -0.4552817161     1.1111015311    -0.6553156344
    6      N       0.8875912852     1.4247711619    -0.3430432341
    7      H       2.3211172133     0.1925561323     0.6989071112
    8      H       1.0926564829    -1.9412742986    -0.4276580212
    9      H      -1.2281375258    -0.8061315569    -1.7274461659
   10      H      -2.0897512145     0.3389827218     0.8132855182
   11      H      -1.0548513130     1.8408387526    -1.1882384732
   12      C       0.1480427155    -0.4129451366     1.0997136363
   13      H       0.2316694850    -0.7922923052     2.1119935378
 ----------------------------------------------------------------

   10    -286.8249853363      4.14E-09 Convergence criterion met
 Total energy in the final basis set = -286.82498534
 Final energy is   -286.824985336285
 **  OPTIMIZATION CONVERGED  **

                    Orbital Energies (a.u.)
 --------------------------------------------------------------

 Alpha MOs
 -- Occupied --
-14.335 -10.215 -10.215 -10.207 -10.207 -10.207 -10.206  -0.986
 -0.837  -0.793  -0.649  -0.588  -0.574  -0.542  -0.533  -0.455
 -0.427  -0.415  -0.395  -0.384  -0.337  -0.275  -0.274  -0.248
 -0.212

 Beta MOs
 -- Occupied --
-14.319 -10.217 -10.216 -10.205 -10.205 -10.205 -10.205  -0.976
 -0.811  -0.789  -0.644  -0.585  -0.568  -0.537  -0.529  -0.453
 -0.423  -0.392  -0.389  -0.378  -0.322  -0.269  -0.257  -0.244

          Ground-State Mulliken Net Atomic Charges

     Atom                 Charge (a.u.)    Spin (a.u.)
  --------------------------------------------------------
      1 C                    -0.044907      -0.080315
      2 C                    -0.124633       0.089575
      3 C                    -0.125080       0.089430
      4 C                    -0.124659       0.088976
      5 C                    -0.044698      -0.080267
      6 N                    -0.285894       0.811493
      7 H                     0.149316       0.001045
      8 H                     0.144027      -0.002506
      9 H                     0.144020      -0.002504
     10 H                     0.143984      -0.002470
     11 H                     0.149315       0.001043
     12 C                    -0.124738       0.088968
     13 H                     0.143947      -0.002470
  --------------------------------------------------------
  Sum of atomic charges =     0.000000

                    Cartesian Multipole Moments
 -----------------------------------------------------------------
    Charge (ESU x 10^10)
                -0.0000
    Dipole Moment (Debye)
         X      -1.2039      Y      -1.9312      Z       0.4662
       Tot       2.3230
    Quadrupole Moments (Debye-Ang)
        XX     -38.4298     XY      -4.1510     YY     -43.2966
        XZ       2.2395     YZ       0.3066     ZZ     -38.8901

 Total job time:  68.78s(wall), 85.11s(cpu)
        *  Thank you very much for using Q-Chem.  Have a nice day.  *
