 Q-Chem 5.0, Q-Chem, Inc., Pleasanton, CA (2017)
 Q-Chem 5.0.2 for Intel X86 EM64T Linux

User input:
--------------------------------------------------------------
$molecule
0 2
C        1.6635253014    0.2046191745   -2.1738293404
C        1.1294992475   -0.9476444980   -2.0180176036
C       -0.3206920500   -1.2033723640   -2.3305309782
C       -1.4313206952    0.4383775738   -0.5607329269
C       -0.8428386840    0.8498777909   -1.9379606984
N        0.9099379984    1.4249888288   -2.6280303480
H        2.6560750120    0.2879166356   -1.6615618354
H        1.7105044980   -1.7087239090   -1.4901458289
H       -0.8892840155   -1.9115029975   -2.8556221968
H       -2.2978293574    0.8825793414    0.0242809710
H       -1.1581432316    1.5073155898   -2.7372822991
C       -1.1411433008   -0.8380537758   -1.0181720119
H       -1.7343986081   -1.6553047355   -0.3903048957
$end

$rem
method                b3lyp
basis                 6-31g(d)
unrestricted          true
symmetry              off
sym_ignore            true
incdft                false
incfock               0
scf_convergence       8
thresh                14
jobtype               opt
scf_guess             read
scf_algorithm         diis
max_scf_cycles        100
geom_opt_tol_gradient 600
geom_opt_tol_displacement 2400
geom_opt_tol_energy   200
geom_opt_max_cycles   100
$end

--------------------------------------------------------------

    2    -286.6215490992      2.57E-09 Convergence criterion met
 Total energy in the final basis set = -286.62154910
   20    -286.7124679355      6.45E-09 Convergence criterion met
 Total energy in the final basis set = -286.71246794
   19    -286.7708650409      4.80E-09 Convergence criterion met
 Total energy in the final basis set = -286.77086504
   17    -286.8083226351      5.46E-09 Convergence criterion met
 Total energy in the final basis set = -286.80832264
   16    -286.8331168540      5.86E-09 Convergence criterion met
 Total energy in the final basis set = -286.83311685
   16    -286.8461344379      7.72E-09 Convergence criterion met
 Total energy in the final basis set = -286.84613444
   16    -286.8583437179      7.05E-09 Convergence criterion met
 Total energy in the final basis set = -286.85834372
   13    -286.8657620342      7.44E-09 Convergence criterion met
   11    -286.8754549893      7.79E-09 Convergence criterion met
 Total energy in the final basis set = -286.87545499
   11    -286.8754625793      6.72E-09 Convergence criterion met
 Total energy in the final basis set = -286.87546258
   10    -286.8754674787      9.53E-09 Convergence criterion met
 Total energy in the final basis set = -286.87546748
    9    -286.8754711746      9.83E-09 Convergence criterion met
 Total energy in the final basis set = -286.87547117
   10    -286.8754746048      6.84E-09 Convergence criterion met
 Total energy in the final basis set = -286.87547460
   10    -286.8754776030      5.57E-09 Convergence criterion met
 Total energy in the final basis set = -286.87547760

             Standard Nuclear Orientation (Angstroms)
    I     Atom           X                Y                Z
 ----------------------------------------------------------------
    1      C       1.5568403282     0.3006265020    -1.8703408544
    2      C       1.0646632192    -1.0113801653    -1.9484763836
    3      C      -0.4152611606    -0.9439781077    -2.1353650324
    4      C      -1.4436211367     0.4215401830    -0.8778354513
    5      C      -0.6351998441     0.6206137118    -2.1609858492
    6      N       0.6580122208     1.2729437448    -1.9855688467
    7      H       2.6022734030     0.5558063671    -1.7025392648
    8      H       1.6563328850    -1.9148607808    -1.8501534392
    9      H      -0.8046074678    -1.5504932163    -2.9634664705
   10      H      -1.9323136802     1.1356963523    -0.2218479408
   11      H      -1.1813555383     1.0468615610    -3.0113578672
   12      C      -1.2749993496    -0.9050163270    -0.8605340725
   13      H      -1.5968717641    -1.6972871699    -0.1894385196
 ----------------------------------------------------------------

    9    -286.8754796406      9.88E-09 Convergence criterion met
 Total energy in the final basis set = -286.87547964
 Final energy is   -286.875479640589
 **  OPTIMIZATION CONVERGED  **

                    Orbital Energies (a.u.)
 --------------------------------------------------------------

 Alpha MOs
 -- Occupied --
-14.328 -10.217 -10.216 -10.207 -10.203 -10.200 -10.195  -0.944
 -0.837  -0.752  -0.665  -0.618  -0.554  -0.523  -0.515  -0.481
 -0.428  -0.402  -0.386  -0.355  -0.341  -0.322  -0.270  -0.253
 -0.203

 Beta MOs
 -- Occupied --
-14.318 -10.219 -10.218 -10.203 -10.199 -10.198 -10.194  -0.932
 -0.831  -0.734  -0.665  -0.610  -0.549  -0.520  -0.512  -0.475
 -0.420  -0.396  -0.381  -0.343  -0.334  -0.301  -0.264  -0.246

          Ground-State Mulliken Net Atomic Charges

     Atom                 Charge (a.u.)    Spin (a.u.)
  --------------------------------------------------------
      1 C                     0.048240      -0.230702
      2 C                    -0.114577       0.693061
      3 C                    -0.193735      -0.053944
      4 C                    -0.075996       0.032516
      5 C                    -0.061837      -0.027706
      6 N                    -0.351411       0.517082
      7 H                     0.140523       0.007432
      8 H                     0.143373      -0.032142
      9 H                     0.148026       0.025249
     10 H                     0.137488       0.003596
     11 H                     0.151635       0.025183
     12 C                    -0.105024       0.033484
     13 H                     0.133296       0.006889
  --------------------------------------------------------
  Sum of atomic charges =    -0.000000

                    Cartesian Multipole Moments
 -----------------------------------------------------------------
    Charge (ESU x 10^10)
                -0.0000
    Dipole Moment (Debye)
         X      -0.4179      Y      -2.1114      Z       0.1069
       Tot       2.1550
    Quadrupole Moments (Debye-Ang)
        XX     -37.6237     XY      -2.3798     YY     -41.8289
        XZ       0.4792     YZ       3.9870     ZZ     -40.3391

 Total job time:  1273.69s(wall), 1648.10s(cpu)
        *  Thank you very much for using Q-Chem.  Have a nice day.  *
