 Q-Chem 5.0, Q-Chem, Inc., Pleasanton, CA (2017)
 Q-Chem 5.0.2 for Intel X86 EM64T Linux

User input:
--------------------------------------------------------------
$molecule
0 2
C        1.3277963679   -0.2117653334   -0.0992011141
C        0.4362342385   -1.2606096948    0.3833014826
C       -0.9102431008   -1.0865058870    0.4553382881
C       -1.5083776880    0.2221164911    0.3217857832
C       -0.7540403017    1.3174460859    0.0555584349
N        0.5878106200    1.2513559837   -0.3515638806
H        2.3140390293   -0.1260350642    0.3588801629
H        0.8953034780   -2.1754966966    0.7506530170
H       -1.5377762948   -1.9053667019    0.7954785165
H       -2.5440704689    0.3569372735    0.6202320965
H       -1.1126711099    2.3249600569    0.2481944594
C        1.0484761561    0.4346234534   -1.3742561968
H        1.7004827762    0.7685596258   -2.1765782745
$end

$rem
method                b3lyp
basis                 6-31+g(d,p)
unrestricted          true
symmetry              off
sym_ignore            true
incdft                false
incfock               0
scf_convergence       8
thresh                14
jobtype               sp
scf_guess             core
scf_guess_mix         5
scf_algorithm         diis
max_scf_cycles        100
$end

--------------------------------------------------------------

             Standard Nuclear Orientation (Angstroms)
    I     Atom           X                Y                Z
 ----------------------------------------------------------------
    1      C       1.3277963679    -0.2117653334    -0.0992011141
    2      C       0.4362342385    -1.2606096948     0.3833014826
    3      C      -0.9102431008    -1.0865058870     0.4553382881
    4      C      -1.5083776880     0.2221164911     0.3217857832
    5      C      -0.7540403017     1.3174460859     0.0555584349
    6      N       0.5878106200     1.2513559837    -0.3515638806
    7      H       2.3140390293    -0.1260350642     0.3588801629
    8      H       0.8953034780    -2.1754966966     0.7506530170
    9      H      -1.5377762948    -1.9053667019     0.7954785165
   10      H      -2.5440704689     0.3569372735     0.6202320965
   11      H      -1.1126711099     2.3249600569     0.2481944594
   12      C       1.0484761561     0.4346234534    -1.3742561968
   13      H       1.7004827762     0.7685596258    -2.1765782745
 ----------------------------------------------------------------

   22    -286.8622238097      4.43E-09 Convergence criterion met
 Total energy in the final basis set = -286.86222381

                    Orbital Energies (a.u.)
 --------------------------------------------------------------

 Alpha MOs
 -- Occupied --
-14.373 -10.243 -10.234 -10.230 -10.207 -10.204 -10.199  -0.984
 -0.816  -0.789  -0.675  -0.653  -0.571  -0.530  -0.502  -0.489
 -0.459  -0.433  -0.400  -0.379  -0.370  -0.322  -0.277  -0.234
 -0.200

 Beta MOs
 -- Occupied --
-14.371 -10.244 -10.229 -10.221 -10.207 -10.205 -10.199  -0.975
 -0.814  -0.785  -0.667  -0.652  -0.558  -0.526  -0.497  -0.484
 -0.452  -0.426  -0.395  -0.377  -0.368  -0.307  -0.274  -0.222

          Ground-State Mulliken Net Atomic Charges

     Atom                 Charge (a.u.)    Spin (a.u.)
  --------------------------------------------------------
      1 C                    -0.076512      -0.103195
      2 C                    -0.012435       0.053792
      3 C                    -0.189037      -0.035662
      4 C                     0.090714       0.083352
      5 C                    -0.234531      -0.114031
      6 N                    -0.156488       0.125251
      7 H                     0.147008       0.009571
      8 H                     0.133855      -0.001194
      9 H                     0.126499       0.000656
     10 H                     0.126817       0.001829
     11 H                     0.136499      -0.001376
     12 C                    -0.233569       0.980376
     13 H                     0.141179       0.000631
  --------------------------------------------------------
  Sum of atomic charges =     0.000000

                    Cartesian Multipole Moments
 -----------------------------------------------------------------
    Charge (ESU x 10^10)
                 0.0000
    Dipole Moment (Debye)
         X       0.1189      Y      -0.8059      Z       0.5023
       Tot       0.9570
    Quadrupole Moments (Debye-Ang)
        XX     -37.3118     XY      -1.8763     YY     -41.0962
        XZ      -2.1803     YZ      -1.8142     ZZ     -43.2939

 Total job time:  84.59s(wall), 112.63s(cpu)
        *  Thank you very much for using Q-Chem.  Have a nice day.  *
