 Q-Chem 5.0, Q-Chem, Inc., Pleasanton, CA (2017)
 Q-Chem 5.0.2 for Intel X86 EM64T Linux

User input:
--------------------------------------------------------------
$molecule
0 2
C        1.3198689435   -0.1740297518   -0.0811625445
C        0.4388580022   -1.2539058406    0.3869777441
C       -0.9012422113   -1.0817952339    0.4847310865
C       -1.5030179527    0.2330975964    0.3490652772
C       -0.7545936815    1.3168080579    0.0482609488
N        0.6024515089    1.2226284054   -0.3386142732
H        2.3010476621   -0.0848576482    0.3877024036
H        0.9066614819   -2.1820566650    0.7060029028
H       -1.5292735747   -1.9044684086    0.8148287037
H       -2.5407849220    0.3691391148    0.6389764610
H       -1.1166397145    2.3324274612    0.1773736148
C        1.0628469712    0.4327291838   -1.3870354486
H        1.7138174868    0.7742837287   -2.1871068762
$end

$rem
method                b3lyp
basis                 6-31+g(d,p)
unrestricted          true
symmetry              off
sym_ignore            true
incdft                false
incfock               0
scf_convergence       6
thresh                14
jobtype               sp
scf_guess             read
scf_algorithm         diis
max_scf_cycles        100
stability_analysis    true
max_cis_cycles        100
cis_n_roots           4
$end

--------------------------------------------------------------

             Standard Nuclear Orientation (Angstroms)
    I     Atom           X                Y                Z
 ----------------------------------------------------------------
    1      C       1.3198689435    -0.1740297518    -0.0811625445
    2      C       0.4388580022    -1.2539058406     0.3869777441
    3      C      -0.9012422113    -1.0817952339     0.4847310865
    4      C      -1.5030179527     0.2330975964     0.3490652772
    5      C      -0.7545936815     1.3168080579     0.0482609488
    6      N       0.6024515089     1.2226284054    -0.3386142732
    7      H       2.3010476621    -0.0848576482     0.3877024036
    8      H       0.9066614819    -2.1820566650     0.7060029028
    9      H      -1.5292735747    -1.9044684086     0.8148287037
   10      H      -2.5407849220     0.3691391148     0.6389764610
   11      H      -1.1166397145     2.3324274612     0.1773736148
   12      C       1.0628469712     0.4327291838    -1.3870354486
   13      H       1.7138174868     0.7742837287    -2.1871068762
 ----------------------------------------------------------------

    2    -286.8624208178      3.14E-09 Convergence criterion met
 Total energy in the final basis set = -286.86242082

         TDDFT/TDA Excitation Energies
 ---------------------------------------------------

 Excited state   1: excitation energy (eV) =    2.6999
 Total energy for state  1:                  -286.76320205 au
    <S**2>     :  1.9288
    Trans. Mom.: -0.0742 X   0.0522 Y   0.0959 Z
    Strength   :     0.0011524480
    D( 24) --> V(  1) amplitude = -0.3177 alpha
    S(  1) --> V(  1) amplitude =  0.5992 alpha
    D( 24) --> S(  1) amplitude =  0.5248 beta
    D( 24) --> V(  1) amplitude = -0.4761 beta

 Excited state   2: excitation energy (eV) =    2.8368
 Total energy for state  2:                  -286.75817137 au
    <S**2>     :  1.0777
    Trans. Mom.: -0.1341 X  -0.0022 Y   0.2934 Z
    Strength   :     0.0072316316
    S(  1) --> V(  1) amplitude = -0.4057 alpha
    D( 24) --> S(  1) amplitude =  0.8353 beta
    D( 24) --> V(  1) amplitude =  0.2935 beta

 Excited state   3: excitation energy (eV) =    3.3510
 Total energy for state  3:                  -286.73927409 au
    <S**2>     :  1.2865
    Trans. Mom.: -0.0530 X   0.1757 Y  -0.0630 Z
    Strength   :     0.0030893693
    D( 24) --> V(  1) amplitude =  0.5421 alpha
    S(  1) --> V(  1) amplitude =  0.6651 alpha
    D( 24) --> V(  1) amplitude =  0.4864 beta

 Excited state   4: excitation energy (eV) =    4.2477
 Total energy for state  4:                  -286.70632005 au
    <S**2>     :  0.8158
    Trans. Mom.:  0.2109 X  -0.0164 Y   0.0270 Z
    Strength   :     0.0047345283
    D( 24) --> V(  1) amplitude =  0.2194 alpha
    D( 23) --> S(  1) amplitude = -0.9230 beta
    D( 24) --> V(  1) amplitude = -0.2513 beta

 ---------------------------------------------------

                    Orbital Energies (a.u.)
 --------------------------------------------------------------

 Alpha MOs
 -- Occupied --
-14.372 -10.242 -10.234 -10.230 -10.207 -10.204 -10.200  -0.991
 -0.817  -0.786  -0.673  -0.650  -0.576  -0.530  -0.502  -0.488
 -0.460  -0.433  -0.399  -0.378  -0.368  -0.320  -0.284  -0.233
 -0.200

 Beta MOs
 -- Occupied --
-14.369 -10.242 -10.230 -10.221 -10.206 -10.204 -10.200  -0.982
 -0.815  -0.782  -0.665  -0.648  -0.562  -0.525  -0.496  -0.485
 -0.451  -0.426  -0.394  -0.376  -0.365  -0.307  -0.278  -0.220

          Ground-State Mulliken Net Atomic Charges

     Atom                 Charge (a.u.)    Spin (a.u.)
  --------------------------------------------------------
      1 C                    -0.073628      -0.096637
      2 C                    -0.006621       0.045288
      3 C                    -0.203673      -0.025036
      4 C                     0.090011       0.081980
      5 C                    -0.221035      -0.106508
      6 N                    -0.159017       0.125231
      7 H                     0.143790       0.006580
      8 H                     0.131872      -0.001269
      9 H                     0.126558       0.000507
     10 H                     0.127227       0.002533
     11 H                     0.135814      -0.001443
     12 C                    -0.232945       0.964460
     13 H                     0.141647       0.004316
  --------------------------------------------------------
  Sum of atomic charges =    -0.000000

                    Cartesian Multipole Moments
 -----------------------------------------------------------------
    Charge (ESU x 10^10)
                -0.0000
    Dipole Moment (Debye)
         X       0.0510      Y      -0.7335      Z       0.4659
       Tot       0.8704
    Quadrupole Moments (Debye-Ang)
        XX     -37.3694     XY      -1.8148     YY     -40.8740
        XZ      -2.1011     YZ      -1.8716     ZZ     -43.3560

 Total job time:  318.08s(wall), 199.11s(cpu)
        *  Thank you very much for using Q-Chem.  Have a nice day.  *
