 Q-Chem 5.0, Q-Chem, Inc., Pleasanton, CA (2017)
 Q-Chem 5.0.2 for Intel X86 EM64T Linux

User input:
--------------------------------------------------------------
$molecule
0 2
C        1.4298808355   -0.5162862668   -0.3197533289
C        0.4658761785   -1.3310214299    0.3755321344
C       -0.8117936186   -0.9840348135    0.7083348647
C       -1.4667160937    0.2701948990    0.4345863168
C       -0.9557545905    1.3814119512   -0.2130057634
N        0.2475122713    1.6539441195   -0.7738801079
H        2.4031032228   -0.9672164975   -0.4959803541
H        0.8017911517   -2.3257568506    0.6597651267
H       -1.4072674929   -1.7254740750    1.2361544740
H       -2.4937680354    0.3611577897    0.7788881065
H       -1.6471128029    2.2209528728   -0.3007546193
C        1.2776924928    0.7748223881   -0.7958691563
H        2.1565564808    1.1873059136   -1.2940176927
$end

$rem
method                b3lyp
basis                 6-31+g(d,p)
unrestricted          true
symmetry              off
sym_ignore            true
incdft                false
incfock               0
scf_convergence       8
thresh                14
jobtype               sp
scf_guess             core
scf_guess_mix         5
scf_algorithm         diis
max_scf_cycles        100
$end

--------------------------------------------------------------

             Standard Nuclear Orientation (Angstroms)
    I     Atom           X                Y                Z
 ----------------------------------------------------------------
    1      C       1.4298808355    -0.5162862668    -0.3197533289
    2      C       0.4658761785    -1.3310214299     0.3755321344
    3      C      -0.8117936186    -0.9840348135     0.7083348647
    4      C      -1.4667160937     0.2701948990     0.4345863168
    5      C      -0.9557545905     1.3814119512    -0.2130057634
    6      N       0.2475122713     1.6539441195    -0.7738801079
    7      H       2.4031032228    -0.9672164975    -0.4959803541
    8      H       0.8017911517    -2.3257568506     0.6597651267
    9      H      -1.4072674929    -1.7254740750     1.2361544740
   10      H      -2.4937680354     0.3611577897     0.7788881065
   11      H      -1.6471128029     2.2209528728    -0.3007546193
   12      C       1.2776924928     0.7748223881    -0.7958691563
   13      H       2.1565564808     1.1873059136    -1.2940176927
 ----------------------------------------------------------------

   23    -286.9461863524      7.66E-09 Convergence criterion met
 Total energy in the final basis set = -286.94618635

                    Orbital Energies (a.u.)
 --------------------------------------------------------------

 Alpha MOs
 -- Occupied --
-14.337 -10.243 -10.243 -10.223 -10.222 -10.212 -10.212  -0.934
 -0.829  -0.795  -0.703  -0.678  -0.562  -0.547  -0.527  -0.458
 -0.449  -0.423  -0.405  -0.395  -0.358  -0.333  -0.310  -0.263
 -0.174

 Beta MOs
 -- Occupied --
-14.329 -10.245 -10.245 -10.222 -10.221 -10.208 -10.208  -0.923
 -0.820  -0.788  -0.692  -0.676  -0.557  -0.544  -0.524  -0.456
 -0.448  -0.420  -0.392  -0.384  -0.357  -0.307  -0.287  -0.254

          Ground-State Mulliken Net Atomic Charges

     Atom                 Charge (a.u.)    Spin (a.u.)
  --------------------------------------------------------
      1 C                     0.100796       0.372306
      2 C                    -0.164696       0.076243
      3 C                    -0.164902       0.080923
      4 C                     0.100983       0.368262
      5 C                    -0.235402      -0.113280
      6 N                    -0.176188       0.375396
      7 H                     0.127360      -0.018760
      8 H                     0.132823      -0.006655
      9 H                     0.132686      -0.006856
     10 H                     0.127393      -0.018590
     11 H                     0.127005       0.003240
     12 C                    -0.234809      -0.115573
     13 H                     0.126951       0.003344
  --------------------------------------------------------
  Sum of atomic charges =    -0.000000

                    Cartesian Multipole Moments
 -----------------------------------------------------------------
    Charge (ESU x 10^10)
                -0.0000
    Dipole Moment (Debye)
         X      -0.3227      Y      -2.1564      Z       1.0095
       Tot       2.4027
    Quadrupole Moments (Debye-Ang)
        XX     -36.3161     XY      -2.2647     YY     -43.6269
        XZ      -2.3618     YZ       0.2137     ZZ     -44.3669

 Total job time:  80.67s(wall), 115.75s(cpu)
        *  Thank you very much for using Q-Chem.  Have a nice day.  *
