 Q-Chem 5.0, Q-Chem, Inc., Pleasanton, CA (2017)
 Q-Chem 5.0.2 for Intel X86 EM64T Linux

User input:
--------------------------------------------------------------
$molecule
0 2
C        1.4242743716    0.8353427941   -0.3616690010
C        0.2643171839   -1.4181838372   -0.2067771885
C       -0.9825272487   -1.0560637176    0.2076024894
C       -1.4529982031    0.2802445350    0.4704201565
C       -0.7556637669    1.4685398739    0.3607693024
N        0.5138100408    1.7694656913   -0.0009509843
H        2.3879472837    1.2819110123   -0.6166848686
H        0.4506345533   -2.4795574468   -0.3582563135
H       -1.7082678252   -1.8524633778    0.3596866415
H       -2.4869208852    0.3703554210    0.7948489496
H       -1.3305301572    2.3620600000    0.6141942999
C        1.3771353815   -0.5419832185   -0.4698191442
H        2.2987892711   -1.0196677304   -0.7933643394
****
C        1.4200803858   -0.1098819575    0.0440053860
C        0.5131422835   -1.2401414946    0.2844522441
C       -0.8316451544   -1.0778992713    0.2986227697
C       -1.4328374593    0.2447835035    0.2682382033
C       -0.6678893526    1.3505592439    0.1616530424
N        0.7275981763    1.2823799100   -0.0730299393
H        2.3691974865   -0.0889211121    0.5792819380
H        0.9590536237   -2.2126934612    0.4790258194
H       -1.4799193328   -1.9369216640    0.4492643525
H       -2.4982064615    0.3475267443    0.4545223047
H       -1.0519357381    2.3545364406    0.3183829585
C        1.2792250128    0.6783696712   -1.1930080364
H        0.6941365300    0.4083034472   -2.0714110432
$end

$rem
method                b3lyp
basis                 6-31g(d)
unrestricted          true
symmetry              off
sym_ignore            true
incdft                false
incfock               0
scf_convergence       8
thresh                14
jobtype               fsm
scf_guess             core
scf_guess_mix         5
scf_algorithm         diis
max_scf_cycles        100
fsm_nnode             21
fsm_ngrad             6
fsm_mode              2
fsm_opt_mode          2
$end

--------------------------------------------------------------

   23    -286.9243210436      4.44E-09 Convergence criterion met
 Total energy in the final basis set = -286.92432104
   23    -286.8468608089      2.77E-09 Convergence criterion met
 Total energy in the final basis set = -286.84686081
   23    -286.9215626886      6.36E-09 Convergence criterion met
 Total energy in the final basis set = -286.92156269
   23    -286.9216528030      7.48E-09 Convergence criterion met
 Total energy in the final basis set = -286.92165280
   24    -286.9180286510      4.71E-09 Convergence criterion met
 Total energy in the final basis set = -286.91802865
   23    -286.9218209632      5.15E-09 Convergence criterion met
 Total energy in the final basis set = -286.92182096
   23    -286.8413034229      6.25E-09 Convergence criterion met
 Total energy in the final basis set = -286.84130342
   21    -286.8423055530      5.79E-09 Convergence criterion met
 Total energy in the final basis set = -286.76201318
   24    -286.7606398287      2.17E-09 Convergence criterion met
 Total energy in the final basis set = -286.76063983
   24    -286.7619771783      2.09E-09 Convergence criterion met
 Total energy in the final basis set = -286.76197718
   24    -286.7606769972      2.09E-09 Convergence criterion met
 Total energy in the final basis set = -286.76067700
   24    -286.7619306318      2.22E-09 Convergence criterion met
 Total energy in the final basis set = -286.76193063
   24    -286.7607250482      2.04E-09 Convergence criterion met
 Total energy in the final basis set = -286.76072505
   23    -286.7618823219      9.42E-09 Convergence criterion met
 Total energy in the final basis set = -286.76188232
   24    -286.7607752905      2.02E-09 Convergence criterion met
 Total energy in the final basis set = -286.76077529

                    Orbital Energies (a.u.)
 --------------------------------------------------------------

 Alpha MOs
 -- Occupied --
-14.369 -10.239 -10.235 -10.218 -10.214 -10.195 -10.182  -0.971
 -0.803  -0.774  -0.656  -0.619  -0.582  -0.521  -0.501  -0.468
 -0.446  -0.410  -0.391  -0.367  -0.329  -0.312  -0.266  -0.224
 -0.174

 Beta MOs
 -- Occupied --
-14.369 -10.239 -10.222 -10.220 -10.211 -10.192 -10.183  -0.966
 -0.798  -0.770  -0.652  -0.613  -0.566  -0.516  -0.498  -0.466
 -0.439  -0.407  -0.385  -0.364  -0.319  -0.301  -0.259  -0.217

          Ground-State Mulliken Net Atomic Charges

     Atom                 Charge (a.u.)    Spin (a.u.)
  --------------------------------------------------------
      1 C                    -0.017643      -0.017283
      2 C                    -0.205309      -0.164177
      3 C                    -0.099774       0.282431
      4 C                    -0.117985      -0.100322
      5 C                     0.012160       0.219382
      6 N                    -0.428579      -0.019025
      7 H                     0.165862       0.014075
      8 H                     0.146546       0.007121
      9 H                     0.135006      -0.014505
     10 H                     0.130169       0.009920
     11 H                     0.147625      -0.012086
     12 C                    -0.053636       0.807883
     13 H                     0.185557      -0.013415
  --------------------------------------------------------
  Sum of atomic charges =     0.000000

                    Cartesian Multipole Moments
 -----------------------------------------------------------------
    Charge (ESU x 10^10)
                 0.0000
    Dipole Moment (Debye)
         X      -0.1747      Y      -1.7383      Z       0.1539
       Tot       1.7538
    Quadrupole Moments (Debye-Ang)
        XX     -37.1090     XY      -2.5039     YY     -40.0680
        XZ      -1.0300     YZ       2.7216     ZZ     -42.5124

             Standard Nuclear Orientation (Angstroms)
    I     Atom           X                Y                Z
 ----------------------------------------------------------------
    1      C       1.3998943396     0.1292016824     0.1705576188
    2      C       0.4934050615    -1.1416976160     0.2284060000
    3      C      -0.8690588938    -1.0052390977     0.3235183521
    4      C      -1.4923650526     0.2788323445     0.4329812965
    5      C      -0.7541238489     1.3851451823     0.1975018563
    6      N       0.5989639959     1.3093482806    -0.2497683122
    7      H       2.3786124742     0.3913942077     0.5977991293
    8      H       0.8743030028    -2.1608985182     0.0884149529
    9      H      -1.5039670419    -1.8907191006     0.3384144603
   10      H      -2.5410019750     0.3630115395     0.7053453322
   11      H      -1.1335005584     2.3844036770     0.4132515545
   12      C       1.1672431716     0.3105507270    -1.2414265509
   13      H       1.3245590270    -0.4431137161    -2.0171729146
 ----------------------------------------------------------------

 Total job time:  5380.71s(wall), 5134.06s(cpu)
        *  Thank you very much for using Q-Chem.  Have a nice day.  *
