 Q-Chem 5.0, Q-Chem, Inc., Pleasanton, CA (2017)
 Q-Chem 5.0.2 for Intel X86 EM64T Linux

User input:
--------------------------------------------------------------
$molecule
0 2
C        1.4680245156   -0.4603414416   -0.1625297477
C        0.4828687242   -1.3007976825    0.4015530815
C       -0.8601910270   -1.0293192533    0.5812249942
C       -1.4740924770    0.2660305724    0.4297588047
C       -0.9440765215    1.3878714661   -0.1439221792
N        0.1943178714    1.5523448765   -0.9157799488
H        2.4858161227   -0.8379872016   -0.2005096651
H        0.8226971695   -2.2904850188    0.7045290612
H       -1.4885970887   -1.8282858438    0.9653832109
H       -2.4693794579    0.3767147958    0.8572036275
H       -1.5236551805    2.3055594747   -0.0635160488
C        1.2217178563    0.7364300589   -0.8942884923
H        2.0275131961    1.0324847953   -1.5712839158
$end

$rem
method                b3lyp
basis                 6-31+g(d,p)
unrestricted          true
symmetry              off
sym_ignore            true
incdft                false
incfock               0
scf_convergence       8
thresh                14
jobtype               opt
scf_guess             read
scf_algorithm         diis
max_scf_cycles        100
geom_opt_max_cycles   300
$end

--------------------------------------------------------------

   21    -286.9434023568      5.45E-09 Convergence criterion met
 Total energy in the final basis set = -286.94340236
   15    -286.9440683993      6.61E-09 Convergence criterion met
 Total energy in the final basis set = -286.94406840
   16    -286.9448860696      4.85E-09 Convergence criterion met
 Total energy in the final basis set = -286.94488607
   16    -286.9454989491      5.19E-09 Convergence criterion met
 Total energy in the final basis set = -286.94549895
   16    -286.9458718770      4.76E-09 Convergence criterion met
 Total energy in the final basis set = -286.94587188
   15    -286.9460097675      6.30E-09 Convergence criterion met
 Total energy in the final basis set = -286.94600977
   15    -286.9461224163      5.80E-09 Convergence criterion met
 Total energy in the final basis set = -286.94612242
   14    -286.9461636994      7.13E-09 Convergence criterion met
 Total energy in the final basis set = -286.94616370
   14    -286.9461790983      5.20E-09 Convergence criterion met
 Total energy in the final basis set = -286.94617910
   13    -286.9461832224      5.12E-09 Convergence criterion met
 Total energy in the final basis set = -286.94618322
   13    -286.9461857454      7.23E-09 Convergence criterion met
 Total energy in the final basis set = -286.94618575

             Standard Nuclear Orientation (Angstroms)
    I     Atom           X                Y                Z
 ----------------------------------------------------------------
    1      C       1.4254934281    -0.5231924516    -0.3206900380
    2      C       0.4614887711    -1.3379276147     0.3745954253
    3      C      -0.8161810260    -0.9909409983     0.7073981556
    4      C      -1.4711035011     0.2632887142     0.4336496077
    5      C      -0.9601419979     1.3745057664    -0.2139424725
    6      N       0.2431248639     1.6470379347    -0.7748168170
    7      H       2.3987158154    -0.9741226823    -0.4969170632
    8      H       0.7974037443    -2.3326630354     0.6588284176
    9      H      -1.4116549003    -1.7323802598     1.2352177649
   10      H      -2.4981554428     0.3542516049     0.7779513974
   11      H      -1.6515002103     2.2140466880    -0.3016913284
   12      C       1.2733050854     0.7679162033    -0.7968058654
   13      H       2.1521690734     1.1803997288    -1.2949544018
 ----------------------------------------------------------------

   12    -286.9461863524      7.04E-09 Convergence criterion met
 Total energy in the final basis set = -286.94618635
 Final energy is   -286.946186352435
 **  OPTIMIZATION CONVERGED  **

                    Orbital Energies (a.u.)
 --------------------------------------------------------------

 Alpha MOs
 -- Occupied --
-14.337 -10.243 -10.243 -10.223 -10.222 -10.212 -10.212  -0.934
 -0.829  -0.795  -0.703  -0.678  -0.562  -0.547  -0.527  -0.458
 -0.449  -0.423  -0.405  -0.395  -0.358  -0.333  -0.310  -0.263
 -0.174

 Beta MOs
 -- Occupied --
-14.329 -10.245 -10.245 -10.222 -10.221 -10.208 -10.208  -0.923
 -0.820  -0.788  -0.692  -0.676  -0.557  -0.544  -0.524  -0.456
 -0.448  -0.420  -0.392  -0.384  -0.357  -0.307  -0.287  -0.254

          Ground-State Mulliken Net Atomic Charges

     Atom                 Charge (a.u.)    Spin (a.u.)
  --------------------------------------------------------
      1 C                     0.100796       0.372307
      2 C                    -0.164695       0.076238
      3 C                    -0.164902       0.080927
      4 C                     0.100983       0.368263
      5 C                    -0.235402      -0.113280
      6 N                    -0.176188       0.375397
      7 H                     0.127360      -0.018760
      8 H                     0.132823      -0.006655
      9 H                     0.132686      -0.006856
     10 H                     0.127393      -0.018590
     11 H                     0.127005       0.003240
     12 C                    -0.234809      -0.115574
     13 H                     0.126951       0.003344
  --------------------------------------------------------
  Sum of atomic charges =     0.000000

                    Cartesian Multipole Moments
 -----------------------------------------------------------------
    Charge (ESU x 10^10)
                -0.0000
    Dipole Moment (Debye)
         X      -0.3227      Y      -2.1564      Z       1.0095
       Tot       2.4027
    Quadrupole Moments (Debye-Ang)
        XX     -36.3132     XY      -2.2531     YY     -43.5971
        XZ      -2.3659     YZ       0.2087     ZZ     -44.3688

 Total job time:  622.59s(wall), 1100.48s(cpu)
        *  Thank you very much for using Q-Chem.  Have a nice day.  *
