 Q-Chem 5.0, Q-Chem, Inc., Pleasanton, CA (2017)
 Q-Chem 5.0.2 for Intel X86 EM64T Linux

User input:
--------------------------------------------------------------
$molecule
0 2
C        1.3277963679   -0.2117653334   -0.0992011141
C        0.4362342385   -1.2606096948    0.3833014826
C       -0.9102431008   -1.0865058870    0.4553382881
C       -1.5083776880    0.2221164911    0.3217857832
C       -0.7540403017    1.3174460859    0.0555584349
N        0.5878106200    1.2513559837   -0.3515638806
H        2.3140390293   -0.1260350642    0.3588801629
H        0.8953034780   -2.1754966966    0.7506530170
H       -1.5377762948   -1.9053667019    0.7954785165
H       -2.5440704689    0.3569372735    0.6202320965
H       -1.1126711099    2.3249600569    0.2481944594
C        1.0484761561    0.4346234534   -1.3742561968
H        1.7004827762    0.7685596258   -2.1765782745
$end

$rem
method                b3lyp
basis                 6-31+g(d,p)
unrestricted          true
symmetry              off
sym_ignore            true
incdft                false
incfock               0
scf_convergence       8
thresh                14
jobtype               rpath
scf_guess             core
scf_guess_mix         5
scf_algorithm         diis
max_scf_cycles        100
rpath_direction       1
rpath_tol_displacement 1000
rpath_max_cycles      50
geom_opt_max_cycles   300
geom_opt_hessian      read
$end

--------------------------------------------------------------

   22    -286.8622238097      4.43E-09 Convergence criterion met
 Total energy in the final basis set = -286.86222381
   22    -286.8625805690      7.61E-09 Convergence criterion met
 Total energy in the final basis set = -286.86258057
   22    -286.8623150926      6.08E-09 Convergence criterion met
 Total energy in the final basis set = -286.86231509
   22    -286.8625839675      7.67E-09 Convergence criterion met
 Total energy in the final basis set = -286.86258397
   22    -286.8641034864      8.75E-09 Convergence criterion met
 Total energy in the final basis set = -286.86410349
   22    -286.8626340413      4.24E-09 Convergence criterion met
 Total energy in the final basis set = -286.86263404
   22    -286.8641856355      8.02E-09 Convergence criterion met
 Total energy in the final basis set = -286.86418564
   22    -286.8666670135      7.28E-09 Convergence criterion met
 Total energy in the final basis set = -286.86119400
   22    -286.8624195960      5.13E-09 Convergence criterion met
 Total energy in the final basis set = -286.86241960
   22    -286.8624149985      5.20E-09 Convergence criterion met
 Total energy in the final basis set = -286.86241500
   22    -286.8624217867      5.15E-09 Convergence criterion met
 Total energy in the final basis set = -286.86242179
   22    -286.8605973430      6.13E-09 Convergence criterion met
 Total energy in the final basis set = -286.86059734
   22    -286.8624257440      5.19E-09 Convergence criterion met
 Total energy in the final basis set = -286.86242574
   22    -286.8624253646      5.17E-09 Convergence criterion met
 Total energy in the final basis set = -286.86242536
   22    -286.8624269464      5.18E-09 Convergence criterion met
 Total energy in the final basis set = -286.86242695

                    Orbital Energies (a.u.)
 --------------------------------------------------------------

 Alpha MOs
 -- Occupied --
-14.372 -10.242 -10.234 -10.231 -10.207 -10.204 -10.200  -0.991
 -0.817  -0.786  -0.673  -0.650  -0.576  -0.530  -0.502  -0.488
 -0.460  -0.433  -0.399  -0.378  -0.367  -0.320  -0.284  -0.233
 -0.200

 Beta MOs
 -- Occupied --
-14.369 -10.242 -10.230 -10.221 -10.206 -10.204 -10.200  -0.982
 -0.815  -0.782  -0.665  -0.648  -0.562  -0.525  -0.496  -0.485
 -0.451  -0.426  -0.394  -0.376  -0.365  -0.307  -0.278  -0.220

          Ground-State Mulliken Net Atomic Charges

     Atom                 Charge (a.u.)    Spin (a.u.)
  --------------------------------------------------------
      1 C                    -0.073587      -0.096445
      2 C                    -0.006411       0.045138
      3 C                    -0.204155      -0.024826
      4 C                     0.090036       0.081985
      5 C                    -0.220779      -0.106370
      6 N                    -0.159030       0.125280
      7 H                     0.143719       0.006541
      8 H                     0.131849      -0.001270
      9 H                     0.126541       0.000506
     10 H                     0.127238       0.002549
     11 H                     0.135825      -0.001448
     12 C                    -0.232855       0.964089
     13 H                     0.141610       0.004273
  --------------------------------------------------------
  Sum of atomic charges =     0.000000

                    Cartesian Multipole Moments
 -----------------------------------------------------------------
    Charge (ESU x 10^10)
                -0.0000
    Dipole Moment (Debye)
         X       0.0470      Y      -0.7355      Z       0.4604
       Tot       0.8690
    Quadrupole Moments (Debye-Ang)
        XX     -37.3854     XY      -1.8085     YY     -40.8228
        XZ      -2.1255     YZ      -1.8500     ZZ     -43.3800

             Standard Nuclear Orientation (Angstroms)
    I     Atom           X                Y                Z
 ----------------------------------------------------------------
    1      C       1.3277963679    -0.2117653334    -0.0992011141
    2      C       0.4362342385    -1.2606096948     0.3833014826
    3      C      -0.9102431008    -1.0865058870     0.4553382881
    4      C      -1.5083776880     0.2221164911     0.3217857832
    5      C      -0.7540403017     1.3174460859     0.0555584349
    6      N       0.5878106200     1.2513559837    -0.3515638806
    7      H       2.3140390293    -0.1260350642     0.3588801629
    8      H       0.8953034780    -2.1754966966     0.7506530170
    9      H      -1.5377762948    -1.9053667019     0.7954785165
   10      H      -2.5440704689     0.3569372735     0.6202320965
   11      H      -1.1126711099     2.3249600569     0.2481944594
   12      C       1.0484761561     0.4346234534    -1.3742561968
   13      H       1.7004827762     0.7685596258    -2.1765782745
 ----------------------------------------------------------------

 Total job time:  18862.45s(wall), 31695.78s(cpu)
        *  Thank you very much for using Q-Chem.  Have a nice day.  *
