 Q-Chem 5.0, Q-Chem, Inc., Pleasanton, CA (2017)
 Q-Chem 5.0.2 for Intel X86 EM64T Linux

User input:
--------------------------------------------------------------
$molecule
0 2
C        1.4248047795    0.8351905861   -0.3608573685
C        0.2641754905   -1.4178065682   -0.2075422499
C       -0.9823267957   -1.0560105798    0.2082138302
C       -1.4531096034    0.2801671230    0.4719680000
C       -0.7560878234    1.4684735380    0.3605923550
N        0.5127386001    1.7692626350   -0.0041128838
H        2.3887301342    1.2820544124   -0.6143378257
H        0.4497371851   -2.4790931123   -0.3605291759
H       -1.7079332310   -1.8526234531    0.3598812301
H       -2.4868337669    0.3703446867    0.7968987782
H       -1.3309948254    2.3624711309    0.6124714574
C        1.3779230141   -0.5422021264   -0.4692217660
H        2.2991768418   -1.0202282729   -0.7934243814
$end

$rem
method                b3lyp
basis                 6-31g(d)
unrestricted          true
symmetry              off
sym_ignore            true
incdft                false
incfock               0
scf_convergence       8
thresh                14
jobtype               opt
scf_guess             core
scf_guess_mix         5
scf_algorithm         diis
max_scf_cycles        100
geom_opt_max_cycles   300
$end

--------------------------------------------------------------

   23    -286.9243193853      4.40E-09 Convergence criterion met
 Total energy in the final basis set = -286.92431939
   18    -286.9243206425      2.98E-09 Convergence criterion met
 Total energy in the final basis set = -286.92432064

             Standard Nuclear Orientation (Angstroms)
    I     Atom           X                Y                Z
 ----------------------------------------------------------------
    1      C       1.4242743716     0.8353427941    -0.3616690010
    2      C       0.2643171839    -1.4181838372    -0.2067771885
    3      C      -0.9825272487    -1.0560637176     0.2076024894
    4      C      -1.4529982031     0.2802445350     0.4704201565
    5      C      -0.7556637669     1.4685398739     0.3607693024
    6      N       0.5138100408     1.7694656913    -0.0009509843
    7      H       2.3879472837     1.2819110123    -0.6166848686
    8      H       0.4506345533    -2.4795574468    -0.3582563135
    9      H      -1.7082678252    -1.8524633778     0.3596866415
   10      H      -2.4869208852     0.3703554210     0.7948489496
   11      H      -1.3305301572     2.3620600000     0.6141942999
   12      C       1.3771353815    -0.5419832185    -0.4698191442
   13      H       2.2987892711    -1.0196677304    -0.7933643394
 ----------------------------------------------------------------

   18    -286.9243210436      3.10E-09 Convergence criterion met
 Total energy in the final basis set = -286.92432104
 Final energy is   -286.924321043553
 **  OPTIMIZATION CONVERGED  **

                    Orbital Energies (a.u.)
 --------------------------------------------------------------

 Alpha MOs
 -- Occupied --
-14.322 -10.232 -10.232 -10.212 -10.211 -10.201 -10.200  -0.922
 -0.818  -0.784  -0.693  -0.667  -0.551  -0.537  -0.518  -0.449
 -0.439  -0.414  -0.394  -0.387  -0.349  -0.322  -0.299  -0.251
 -0.162

 Beta MOs
 -- Occupied --
-14.314 -10.233 -10.233 -10.210 -10.210 -10.196 -10.196  -0.911
 -0.809  -0.777  -0.681  -0.665  -0.546  -0.535  -0.514  -0.447
 -0.438  -0.411  -0.383  -0.373  -0.348  -0.295  -0.276  -0.241

          Ground-State Mulliken Net Atomic Charges

     Atom                 Charge (a.u.)    Spin (a.u.)
  --------------------------------------------------------
      1 C                     0.035716      -0.113198
      2 C                    -0.111065       0.092481
      3 C                    -0.111394       0.094983
      4 C                    -0.131367       0.346037
      5 C                     0.035238      -0.112056
      6 N                    -0.423319       0.386930
      7 H                     0.142586       0.003432
      8 H                     0.141946      -0.006576
      9 H                     0.141911      -0.006697
     10 H                     0.134384      -0.018290
     11 H                     0.142655       0.003374
     12 C                    -0.131645       0.347959
     13 H                     0.134352      -0.018379
  --------------------------------------------------------
  Sum of atomic charges =     0.000000

                    Cartesian Multipole Moments
 -----------------------------------------------------------------
    Charge (ESU x 10^10)
                -0.0000
    Dipole Moment (Debye)
         X      -0.6256      Y      -2.1544      Z       0.0013
       Tot       2.2434
    Quadrupole Moments (Debye-Ang)
        XX     -35.6805     XY      -1.9410     YY     -41.7936
        XZ      -2.5196     YZ       0.7318     ZZ     -42.5255

 Total job time:  176.10s(wall), 178.87s(cpu)
        *  Thank you very much for using Q-Chem.  Have a nice day.  *
