 Q-Chem 5.0, Q-Chem, Inc., Pleasanton, CA (2017)
 Q-Chem 5.0.2 for Intel X86 EM64T Linux

User input:
--------------------------------------------------------------
$molecule
0 2
C        1.4201258592   -0.1102457039    0.0437406180
C        0.5131430826   -1.2404086446    0.2844096631
C       -0.8315315215   -1.0779425025    0.2988434207
C       -1.4326655262    0.2447544380    0.2682274338
C       -0.6677288371    1.3505297139    0.1618312354
N        0.7278310960    1.2823628800   -0.0724007467
H        2.3692255611   -0.0891025893    0.5789650420
H        0.9590764770   -2.2129026878    0.4792617381
H       -1.4797767166   -1.9369299244    0.4497674187
H       -2.4981846856    0.3475476200    0.4535917572
H       -1.0519440033    2.3545724731    0.3176918551
C        1.2790549638    0.6786783182   -1.1928777802
H        0.6933742504    0.4090866093   -2.0710516553
$end

$rem
method                b3lyp
basis                 6-31g(d)
unrestricted          true
symmetry              off
sym_ignore            true
incdft                false
incfock               0
scf_convergence       8
thresh                14
jobtype               opt
scf_guess             core
scf_guess_mix         5
scf_algorithm         diis
max_scf_cycles        100
geom_opt_max_cycles   300
$end

--------------------------------------------------------------

   23    -286.8468604992      3.19E-09 Convergence criterion met
 Total energy in the final basis set = -286.84686050

             Standard Nuclear Orientation (Angstroms)
    I     Atom           X                Y                Z
 ----------------------------------------------------------------
    1      C       1.4200803858    -0.1098819575     0.0440053860
    2      C       0.5131422835    -1.2401414946     0.2844522441
    3      C      -0.8316451544    -1.0778992713     0.2986227697
    4      C      -1.4328374593     0.2447835035     0.2682382033
    5      C      -0.6678893526     1.3505592439     0.1616530424
    6      N       0.7275981763     1.2823799100    -0.0730299393
    7      H       2.3691974865    -0.0889211121     0.5792819380
    8      H       0.9590536237    -2.2126934612     0.4790258194
    9      H      -1.4799193328    -1.9369216640     0.4492643525
   10      H      -2.4982064615     0.3475267443     0.4545223047
   11      H      -1.0519357381     2.3545364406     0.3183829585
   12      C       1.2792250128     0.6783696712    -1.1930080364
   13      H       0.6941365300     0.4083034472    -2.0714110432
 ----------------------------------------------------------------

   17    -286.8468608824      3.84E-09 Convergence criterion met
 Total energy in the final basis set = -286.84686088
 Final energy is   -286.846860882372
 **  OPTIMIZATION CONVERGED  **

                    Orbital Energies (a.u.)
 --------------------------------------------------------------

 Alpha MOs
 -- Occupied --
-14.364 -10.236 -10.224 -10.220 -10.198 -10.197 -10.193  -0.987
 -0.810  -0.778  -0.661  -0.643  -0.577  -0.525  -0.498  -0.483
 -0.441  -0.421  -0.393  -0.372  -0.356  -0.312  -0.300  -0.224
 -0.182

 Beta MOs
 -- Occupied --
-14.360 -10.235 -10.222 -10.207 -10.199 -10.197 -10.193  -0.980
 -0.807  -0.775  -0.655  -0.639  -0.563  -0.521  -0.493  -0.481
 -0.437  -0.410  -0.389  -0.367  -0.352  -0.294  -0.288  -0.212

          Ground-State Mulliken Net Atomic Charges

     Atom                 Charge (a.u.)    Spin (a.u.)
  --------------------------------------------------------
      1 C                    -0.081377       0.004708
      2 C                    -0.107724      -0.060689
      3 C                    -0.143458       0.095318
      4 C                    -0.126714      -0.035463
      5 C                     0.008955       0.074289
      6 N                    -0.378540       0.131586
      7 H                     0.162064       0.001364
      8 H                     0.140840       0.001667
      9 H                     0.135474      -0.004227
     10 H                     0.135268       0.007055
     11 H                     0.154474      -0.003376
     12 C                    -0.049733       0.781383
     13 H                     0.150473       0.006385
  --------------------------------------------------------
  Sum of atomic charges =    -0.000000

                    Cartesian Multipole Moments
 -----------------------------------------------------------------
    Charge (ESU x 10^10)
                -0.0000
    Dipole Moment (Debye)
         X      -1.1379      Y      -1.1673      Z       0.2606
       Tot       1.6508
    Quadrupole Moments (Debye-Ang)
        XX     -39.2403     XY      -3.0830     YY     -39.5808
        XZ       0.9109     YZ      -0.3969     ZZ     -41.9937

 Total job time:  149.27s(wall), 124.74s(cpu)
        *  Thank you very much for using Q-Chem.  Have a nice day.  *
