 Q-Chem 5.0, Q-Chem, Inc., Pleasanton, CA (2017)
 Q-Chem 5.0.2 for Intel X86 EM64T Linux

User input:
--------------------------------------------------------------
$molecule
0 2
C        1.3277963679   -0.2117653334   -0.0992011141
C        0.4362342385   -1.2606096948    0.3833014826
C       -0.9102431008   -1.0865058870    0.4553382881
C       -1.5083776880    0.2221164911    0.3217857832
C       -0.7540403017    1.3174460859    0.0555584349
N        0.5878106200    1.2513559837   -0.3515638806
H        2.3140390293   -0.1260350642    0.3588801629
H        0.8953034780   -2.1754966966    0.7506530170
H       -1.5377762948   -1.9053667019    0.7954785165
H       -2.5440704689    0.3569372735    0.6202320965
H       -1.1126711099    2.3249600569    0.2481944594
C        1.0484761561    0.4346234534   -1.3742561968
H        1.7004827762    0.7685596258   -2.1765782745
$end

$rem
method                b3lyp
basis                 6-31+g(d,p)
unrestricted          true
symmetry              off
sym_ignore            true
incdft                false
incfock               0
scf_convergence       8
thresh                14
jobtype               freq
scf_guess             read
scf_algorithm         diis
max_scf_cycles        100
$end

--------------------------------------------------------------

             Standard Nuclear Orientation (Angstroms)
    I     Atom           X                Y                Z
 ----------------------------------------------------------------
    1      C       1.3277963679    -0.2117653334    -0.0992011141
    2      C       0.4362342385    -1.2606096948     0.3833014826
    3      C      -0.9102431008    -1.0865058870     0.4553382881
    4      C      -1.5083776880     0.2221164911     0.3217857832
    5      C      -0.7540403017     1.3174460859     0.0555584349
    6      N       0.5878106200     1.2513559837    -0.3515638806
    7      H       2.3140390293    -0.1260350642     0.3588801629
    8      H       0.8953034780    -2.1754966966     0.7506530170
    9      H      -1.5377762948    -1.9053667019     0.7954785165
   10      H      -2.5440704689     0.3569372735     0.6202320965
   11      H      -1.1126711099     2.3249600569     0.2481944594
   12      C       1.0484761561     0.4346234534    -1.3742561968
   13      H       1.7004827762     0.7685596258    -2.1765782745
 ----------------------------------------------------------------

    2    -286.8622238098      2.76E-10 Convergence criterion met
 Total energy in the final basis set = -286.86222381

                    Orbital Energies (a.u.)
 --------------------------------------------------------------

 Alpha MOs
 -- Occupied --
-14.373 -10.243 -10.234 -10.230 -10.207 -10.204 -10.199  -0.984
 -0.816  -0.789  -0.675  -0.653  -0.571  -0.530  -0.502  -0.489
 -0.459  -0.433  -0.400  -0.379  -0.370  -0.322  -0.277  -0.234
 -0.200

 Beta MOs
 -- Occupied --
-14.371 -10.244 -10.229 -10.221 -10.207 -10.205 -10.199  -0.975
 -0.814  -0.785  -0.667  -0.652  -0.558  -0.526  -0.497  -0.484
 -0.452  -0.426  -0.395  -0.377  -0.368  -0.307  -0.274  -0.222

          Ground-State Mulliken Net Atomic Charges

     Atom                 Charge (a.u.)    Spin (a.u.)
  --------------------------------------------------------
      1 C                    -0.076511      -0.103200
      2 C                    -0.012435       0.053795
      3 C                    -0.189037      -0.035664
      4 C                     0.090714       0.083379
      5 C                    -0.234531      -0.114060
      6 N                    -0.156487       0.125257
      7 H                     0.147008       0.009572
      8 H                     0.133855      -0.001193
      9 H                     0.126499       0.000656
     10 H                     0.126817       0.001827
     11 H                     0.136499      -0.001374
     12 C                    -0.233570       0.980375
     13 H                     0.141179       0.000631
  --------------------------------------------------------
  Sum of atomic charges =     0.000000

                    Cartesian Multipole Moments
 -----------------------------------------------------------------
    Charge (ESU x 10^10)
                -0.0000
    Dipole Moment (Debye)
         X       0.1189      Y      -0.8059      Z       0.5023
       Tot       0.9570
    Quadrupole Moments (Debye-Ang)
        XX     -37.3118     XY      -1.8763     YY     -41.0962
        XZ      -2.1803     YZ      -1.8142     ZZ     -43.2939

 Frequency:      -307.55                 276.83                 285.00
 Force Cnst:      0.2113                 0.1527                 0.1607
 Red. Mass:       3.7907                 3.3828                 3.3580
 IR Intens:        7.345                  0.781                 11.166
 Frequency:       455.01                 483.42                 625.65
 Force Cnst:      0.3363                 0.9792                 0.9349
 Red. Mass:       2.7570                 7.1116                 4.0535
 IR Intens:       21.375                  5.253                 13.005
 Frequency:       633.79                 707.21                 781.11
 Force Cnst:      0.8250                 0.3608                 0.6124
 Red. Mass:       3.4860                 1.2245                 1.7035
 IR Intens:        8.626                 29.679                 32.109
 Frequency:       805.81                 866.05                 925.08
 Force Cnst:      0.5160                 1.4753                 0.9547
 Red. Mass:       1.3486                 3.3385                 1.8934
 IR Intens:        8.860                 17.831                  9.375
 Frequency:       941.17                 965.91                 980.96
 Force Cnst:      0.9693                 2.0672                 0.7564
 Red. Mass:       1.8572                 3.7607                 1.3341
 IR Intens:        2.421                 16.289                  0.181
 Frequency:      1028.32                1043.34                1099.61
 Force Cnst:      0.8921                 1.2584                 1.0559
 Red. Mass:       1.4319                 1.9620                 1.4822
 IR Intens:        3.854                 10.486                  7.126
 Frequency:      1135.87                1199.83                1218.68
 Force Cnst:      1.7737                 0.9226                 1.0866
 Red. Mass:       2.3333                 1.0878                 1.2418
 IR Intens:        3.948                  1.315                  1.982
 Frequency:      1322.94                1386.43                1422.44
 Force Cnst:      1.6706                 1.9160                 2.6131
 Red. Mass:       1.6201                 1.6918                 2.1920
 IR Intens:       10.632                 24.894                 10.036
 Frequency:      1464.71                1571.74                1665.76
 Force Cnst:      2.7518                 9.9783                 8.3120
 Red. Mass:       2.1770                 6.8556                 5.0843
 IR Intens:        6.455                  5.560                  6.236
 Frequency:      3122.11                3173.43                3175.14
 Force Cnst:      6.2416                 6.4532                 6.4781
 Red. Mass:       1.0868                 1.0876                 1.0906
 IR Intens:       28.176                  5.658                 15.494
 Frequency:      3181.45                3193.36                3204.46
 Force Cnst:      6.4849                 6.5769                 6.6409
 Red. Mass:       1.0874                 1.0946                 1.0977
 IR Intens:        1.716                 25.139                 16.752

 STANDARD THERMODYNAMIC QUANTITIES AT   298.15 K  AND     1.00 ATM

   This Molecule has  1 Imaginary Frequencies
   Zero point vibrational energy:       63.391 kcal/mol

   Atom    1 Element C  Has Mass   12.00000
   Atom    2 Element C  Has Mass   12.00000
   Atom    3 Element C  Has Mass   12.00000
   Atom    4 Element C  Has Mass   12.00000
   Atom    5 Element C  Has Mass   12.00000
   Atom    6 Element N  Has Mass   14.00307
   Atom    7 Element H  Has Mass    1.00783
   Atom    8 Element H  Has Mass    1.00783
   Atom    9 Element H  Has Mass    1.00783
   Atom   10 Element H  Has Mass    1.00783
   Atom   11 Element H  Has Mass    1.00783
   Atom   12 Element C  Has Mass   12.00000
   Atom   13 Element H  Has Mass    1.00783
   Molecular Mass:    92.050050 amu
   Principal axes and moments of inertia in amu*Bohr^2:
                             1           2           3
    Eigenvalues --      390.66681   490.25741   787.80763
          X               0.81566    -0.46014     0.35067
          Y               0.37048     0.88099     0.29427
          Z              -0.44434    -0.11011     0.88906
   Rotational Symmetry Number is   1
   The Molecule is an Asymmetric Top
   Translational Enthalpy:        0.889 kcal/mol
   Rotational Enthalpy:           0.889 kcal/mol
   Vibrational Enthalpy:         64.873 kcal/mol
   gas constant (RT):             0.592 kcal/mol
   Translational Entropy:        39.471  cal/mol.K
   Rotational Entropy:           26.514  cal/mol.K
   Vibrational Entropy:           7.123  cal/mol.K

   Total Enthalpy:               67.243 kcal/mol
   Total Entropy:                73.109  cal/mol.K

 Total job time:  636.92s(wall), 543.41s(cpu)
        *  Thank you very much for using Q-Chem.  Have a nice day.  *
