 Q-Chem 5.0, Q-Chem, Inc., Pleasanton, CA (2017)
 Q-Chem 5.0.2 for Intel X86 EM64T Linux

User input:
--------------------------------------------------------------
$molecule
0 2
C        1.3663655259   -0.1740321422   -0.0162280658
C        0.4553812523   -1.2618257250    0.3836124277
C       -0.8835202121   -1.0810110349    0.4425326325
C       -1.4786163171    0.2359120626    0.3044473825
C       -0.7207500670    1.3271428338    0.0698572371
N        0.6681080925    1.2651886755   -0.2200131266
H        2.3280261842   -0.1147238047    0.5004259707
H        0.9035721452   -2.2088796215    0.6766571924
H       -1.5287671824   -1.9092259814    0.7240994786
H       -2.5332300231    0.3620213794    0.5345527588
H       -1.1053909338    2.3377961267    0.1812260220
C        1.1621306822    0.5102897764   -1.2668281181
H        1.3096545552    0.6215670477   -2.3265190166
$end

$rem
method                b3lyp
basis                 6-31+g(d,p)
unrestricted          true
symmetry              off
sym_ignore            true
incdft                false
incfock               0
scf_convergence       8
thresh                14
jobtype               freq
scf_guess             read
scf_algorithm         diis
max_scf_cycles        100
$end

--------------------------------------------------------------

             Standard Nuclear Orientation (Angstroms)
    I     Atom           X                Y                Z
 ----------------------------------------------------------------
    1      C       1.3663655259    -0.1740321422    -0.0162280658
    2      C       0.4553812523    -1.2618257250     0.3836124277
    3      C      -0.8835202121    -1.0810110349     0.4425326325
    4      C      -1.4786163171     0.2359120626     0.3044473825
    5      C      -0.7207500670     1.3271428338     0.0698572371
    6      N       0.6681080925     1.2651886755    -0.2200131266
    7      H       2.3280261842    -0.1147238047     0.5004259707
    8      H       0.9035721452    -2.2088796215     0.6766571924
    9      H      -1.5287671824    -1.9092259814     0.7240994786
   10      H      -2.5332300231     0.3620213794     0.5345527588
   11      H      -1.1053909338     2.3377961267     0.1812260220
   12      C       1.1621306822     0.5102897764    -1.2668281181
   13      H       1.3096545552     0.6215670477    -2.3265190166
 ----------------------------------------------------------------

    2    -286.8575446480      3.22E-09 Convergence criterion met
 Total energy in the final basis set = -286.85754465

                    Orbital Energies (a.u.)
 --------------------------------------------------------------

 Alpha MOs
 -- Occupied --
-14.372 -10.245 -10.230 -10.225 -10.206 -10.204 -10.199  -0.989
 -0.816  -0.786  -0.670  -0.651  -0.582  -0.527  -0.508  -0.491
 -0.455  -0.431  -0.398  -0.380  -0.368  -0.319  -0.292  -0.230
 -0.175

 Beta MOs
 -- Occupied --
-14.369 -10.246 -10.229 -10.213 -10.206 -10.204 -10.199  -0.979
 -0.814  -0.782  -0.661  -0.649  -0.565  -0.523  -0.503  -0.489
 -0.448  -0.425  -0.394  -0.376  -0.365  -0.305  -0.286  -0.221

          Ground-State Mulliken Net Atomic Charges

     Atom                 Charge (a.u.)    Spin (a.u.)
  --------------------------------------------------------
      1 C                    -0.075043      -0.142800
      2 C                    -0.029473       0.037341
      3 C                    -0.197508       0.010446
      4 C                     0.093916       0.049478
      5 C                    -0.254262      -0.048013
      6 N                    -0.145977       0.102646
      7 H                     0.146545       0.017684
      8 H                     0.131931       0.000494
      9 H                     0.127003      -0.000942
     10 H                     0.126651       0.005120
     11 H                     0.136893      -0.003008
     12 C                    -0.213055       1.012142
     13 H                     0.152378      -0.040587
  --------------------------------------------------------
  Sum of atomic charges =     0.000000

                    Cartesian Multipole Moments
 -----------------------------------------------------------------
    Charge (ESU x 10^10)
                 0.0000
    Dipole Moment (Debye)
         X      -0.4344      Y      -0.9946      Z      -0.0318
       Tot       1.0858
    Quadrupole Moments (Debye-Ang)
        XX     -39.0104     XY      -2.6365     YY     -41.2092
        XZ      -1.2863     YZ      -1.7542     ZZ     -41.9679

 Frequency:      -665.83                 114.13                 266.99
 Force Cnst:      0.3098                 0.0231                 0.1237
 Red. Mass:       1.1862                 3.0159                 2.9454
 IR Intens:       53.286                  4.601                  4.023
 Frequency:       364.30                 472.16                 495.16
 Force Cnst:      0.2949                 0.5217                 1.1035
 Red. Mass:       3.7709                 3.9718                 7.6384
 IR Intens:       10.748                 11.993                  3.952
 Frequency:       620.39                 636.66                 745.35
 Force Cnst:      0.7676                 1.0087                 0.5381
 Red. Mass:       3.3852                 4.2236                 1.6439
 IR Intens:        1.669                 20.727                 51.339
 Frequency:       807.03                 866.94                 916.00
 Force Cnst:      0.5333                 1.2266                 1.3426
 Red. Mass:       1.3898                 2.7701                 2.7159
 IR Intens:        5.145                 16.376                  7.131
 Frequency:       943.50                 952.05                 983.38
 Force Cnst:      1.7280                 0.9004                 0.7379
 Red. Mass:       3.2947                 1.6860                 1.2950
 IR Intens:        7.046                  4.649                  0.677
 Frequency:      1019.12                1028.68                1065.00
 Force Cnst:      0.8480                 1.2319                 0.9961
 Red. Mass:       1.3858                 1.9759                 1.4906
 IR Intens:       11.164                  6.270                  6.254
 Frequency:      1155.55                1199.09                1225.14
 Force Cnst:      2.1561                 0.9165                 1.0813
 Red. Mass:       2.7406                 1.0818                 1.2227
 IR Intens:        8.386                  1.553                  6.627
 Frequency:      1317.22                1380.98                1427.84
 Force Cnst:      1.6137                 1.6702                 3.1138
 Red. Mass:       1.5785                 1.4864                 2.5923
 IR Intens:       10.385                 15.239                  3.880
 Frequency:      1454.78                1601.70                1684.84
 Force Cnst:      2.5636                11.0610                 8.7733
 Red. Mass:       2.0559                 7.3178                 5.2456
 IR Intens:        2.995                  7.190                  6.225
 Frequency:      3088.47                3168.41                3177.26
 Force Cnst:      6.1090                 6.4174                 6.4598
 Red. Mass:       1.0870                 1.0850                 1.0861
 IR Intens:       39.704                  2.704                  1.803
 Frequency:      3189.01                3199.79                3319.14
 Force Cnst:      6.5639                 6.6269                 7.1543
 Red. Mass:       1.0955                 1.0985                 1.1022
 IR Intens:       25.491                 19.765                  1.084

 STANDARD THERMODYNAMIC QUANTITIES AT   298.15 K  AND     1.00 ATM

   This Molecule has  1 Imaginary Frequencies
   Zero point vibrational energy:       62.738 kcal/mol

   Atom    1 Element C  Has Mass   12.00000
   Atom    2 Element C  Has Mass   12.00000
   Atom    3 Element C  Has Mass   12.00000
   Atom    4 Element C  Has Mass   12.00000
   Atom    5 Element C  Has Mass   12.00000
   Atom    6 Element N  Has Mass   14.00307
   Atom    7 Element H  Has Mass    1.00783
   Atom    8 Element H  Has Mass    1.00783
   Atom    9 Element H  Has Mass    1.00783
   Atom   10 Element H  Has Mass    1.00783
   Atom   11 Element H  Has Mass    1.00783
   Atom   12 Element C  Has Mass   12.00000
   Atom   13 Element H  Has Mass    1.00783
   Molecular Mass:    92.050050 amu
   Principal axes and moments of inertia in amu*Bohr^2:
                             1           2           3
    Eigenvalues --      391.47157   489.07178   781.89517
          X               0.82804    -0.46674     0.31066
          Y               0.39365     0.87851     0.27066
          Z              -0.39925    -0.10183     0.91117
   Rotational Symmetry Number is   1
   The Molecule is an Asymmetric Top
   Translational Enthalpy:        0.889 kcal/mol
   Rotational Enthalpy:           0.889 kcal/mol
   Vibrational Enthalpy:         64.544 kcal/mol
   gas constant (RT):             0.592 kcal/mol
   Translational Entropy:        39.471  cal/mol.K
   Rotational Entropy:           26.506  cal/mol.K
   Vibrational Entropy:           9.663  cal/mol.K

   Total Enthalpy:               66.914 kcal/mol
   Total Entropy:                75.640  cal/mol.K

 Total job time:  667.78s(wall), 554.95s(cpu)
        *  Thank you very much for using Q-Chem.  Have a nice day.  *
