 Q-Chem 5.0, Q-Chem, Inc., Pleasanton, CA (2017)
 Q-Chem 5.0.2 for Intel X86 EM64T Linux

User input:
--------------------------------------------------------------
$molecule
0 2
C        1.3663655259   -0.1740321422   -0.0162280658
C        0.4553812523   -1.2618257250    0.3836124277
C       -0.8835202121   -1.0810110349    0.4425326325
C       -1.4786163171    0.2359120626    0.3044473825
C       -0.7207500670    1.3271428338    0.0698572371
N        0.6681080925    1.2651886755   -0.2200131266
H        2.3280261842   -0.1147238047    0.5004259707
H        0.9035721452   -2.2088796215    0.6766571924
H       -1.5287671824   -1.9092259814    0.7240994786
H       -2.5332300231    0.3620213794    0.5345527588
H       -1.1053909338    2.3377961267    0.1812260220
C        1.1621306822    0.5102897764   -1.2668281181
H        1.3096545552    0.6215670477   -2.3265190166
$end

$rem
method                b3lyp
basis                 6-31+g(d,p)
unrestricted          true
symmetry              off
sym_ignore            true
incdft                false
incfock               0
scf_convergence       8
thresh                14
jobtype               ts
scf_guess             read
scf_algorithm         diis
max_scf_cycles        100
geom_opt_max_cycles   500
geom_opt_dmax         100
geom_opt_tol_gradient 10
geom_opt_hessian      read
$end

--------------------------------------------------------------

    2    -286.8575446480      1.07E-09 Convergence criterion met
 Total energy in the final basis set = -286.85754465
   12    -286.8575792274      8.71E-09 Convergence criterion met
 Total energy in the final basis set = -286.85757923
   13    -286.8576060626      6.89E-09 Convergence criterion met
 Total energy in the final basis set = -286.85760606
   13    -286.8576564429      7.69E-09 Convergence criterion met
 Total energy in the final basis set = -286.85765644
   13    -286.8577128257      6.31E-09 Convergence criterion met
 Total energy in the final basis set = -286.85771283
   12    -286.8577505768      7.20E-09 Convergence criterion met
 Total energy in the final basis set = -286.85775058
   13    -286.8578650904      5.44E-09 Convergence criterion met
 Total energy in the final basis set = -286.85786509
   12    -286.8579804677      7.40E-09 Convergence criterion met
   12    -286.8615674597      9.63E-09 Convergence criterion met
 Total energy in the final basis set = -286.86156746
   13    -286.8618495389      5.73E-09 Convergence criterion met
 Total energy in the final basis set = -286.86184954
   13    -286.8620655381      5.54E-09 Convergence criterion met
 Total energy in the final basis set = -286.86206554
   13    -286.8621946579      5.69E-09 Convergence criterion met
 Total energy in the final basis set = -286.86219466
   13    -286.8622225086      5.53E-09 Convergence criterion met
 Total energy in the final basis set = -286.86222251
   10    -286.8622237900      3.57E-09 Convergence criterion met
 Total energy in the final basis set = -286.86222379

             Standard Nuclear Orientation (Angstroms)
    I     Atom           X                Y                Z
 ----------------------------------------------------------------
    1      C       1.3277963679    -0.2117653334    -0.0992011141
    2      C       0.4362342385    -1.2606096948     0.3833014826
    3      C      -0.9102431008    -1.0865058870     0.4553382881
    4      C      -1.5083776880     0.2221164911     0.3217857832
    5      C      -0.7540403017     1.3174460859     0.0555584349
    6      N       0.5878106200     1.2513559837    -0.3515638806
    7      H       2.3140390293    -0.1260350642     0.3588801629
    8      H       0.8953034780    -2.1754966966     0.7506530170
    9      H      -1.5377762948    -1.9053667019     0.7954785165
   10      H      -2.5440704689     0.3569372735     0.6202320965
   11      H      -1.1126711099     2.3249600569     0.2481944594
   12      C       1.0484761561     0.4346234534    -1.3742561968
   13      H       1.7004827762     0.7685596258    -2.1765782745
 ----------------------------------------------------------------

    8    -286.8622238097      4.11E-09 Convergence criterion met
 Total energy in the final basis set = -286.86222381
 Final energy is   -286.862223809715
 **  OPTIMIZATION CONVERGED  **

                    Orbital Energies (a.u.)
 --------------------------------------------------------------

 Alpha MOs
 -- Occupied --
-14.373 -10.243 -10.234 -10.230 -10.207 -10.204 -10.199  -0.984
 -0.816  -0.789  -0.675  -0.653  -0.571  -0.530  -0.502  -0.489
 -0.459  -0.433  -0.400  -0.379  -0.370  -0.322  -0.277  -0.234
 -0.200

 Beta MOs
 -- Occupied --
-14.371 -10.244 -10.229 -10.221 -10.207 -10.205 -10.199  -0.975
 -0.814  -0.785  -0.667  -0.652  -0.558  -0.526  -0.497  -0.484
 -0.452  -0.426  -0.395  -0.377  -0.368  -0.307  -0.274  -0.222

          Ground-State Mulliken Net Atomic Charges

     Atom                 Charge (a.u.)    Spin (a.u.)
  --------------------------------------------------------
      1 C                    -0.076511      -0.103200
      2 C                    -0.012435       0.053796
      3 C                    -0.189037      -0.035665
      4 C                     0.090714       0.083379
      5 C                    -0.234531      -0.114060
      6 N                    -0.156487       0.125257
      7 H                     0.147008       0.009572
      8 H                     0.133855      -0.001194
      9 H                     0.126499       0.000656
     10 H                     0.126817       0.001827
     11 H                     0.136499      -0.001374
     12 C                    -0.233569       0.980375
     13 H                     0.141179       0.000631
  --------------------------------------------------------
  Sum of atomic charges =    -0.000000

                    Cartesian Multipole Moments
 -----------------------------------------------------------------
    Charge (ESU x 10^10)
                -0.0000
    Dipole Moment (Debye)
         X       0.1189      Y      -0.8059      Z       0.5023
       Tot       0.9570
    Quadrupole Moments (Debye-Ang)
        XX     -37.3118     XY      -1.8763     YY     -41.0962
        XZ      -2.1803     YZ      -1.8142     ZZ     -43.2939

 Total job time:  1363.81s(wall), 2003.21s(cpu)
        *  Thank you very much for using Q-Chem.  Have a nice day.  *
