 Q-Chem 5.0, Q-Chem, Inc., Pleasanton, CA (2017)
 Q-Chem 5.0.2 for Intel X86 EM64T Linux

User input:
--------------------------------------------------------------
$molecule
0 2
C        1.3998943396    0.1292016824    0.1705576188
C        0.4934050615   -1.1416976160    0.2284060000
C       -0.8690588938   -1.0052390977    0.3235183521
C       -1.4923650526    0.2788323445    0.4329812965
C       -0.7541238489    1.3851451823    0.1975018563
N        0.5989639959    1.3093482806   -0.2497683122
H        2.3786124742    0.3913942077    0.5977991293
H        0.8743030028   -2.1608985182    0.0884149529
H       -1.5039670419   -1.8907191006    0.3384144603
H       -2.5410019750    0.3630115395    0.7053453322
H       -1.1335005584    2.3844036770    0.4132515545
C        1.1672431716    0.3105507270   -1.2414265509
H        1.3245590270   -0.4431137161   -2.0171729146
$end

$rem
method                b3lyp
basis                 6-31g(d)
unrestricted          true
symmetry              off
sym_ignore            true
incdft                false
incfock               0
scf_convergence       6
thresh                14
jobtype               sp
scf_guess             read
scf_algorithm         diis
max_scf_cycles        100
stability_analysis    true
max_cis_cycles        100
cis_n_roots           4
$end

--------------------------------------------------------------

             Standard Nuclear Orientation (Angstroms)
    I     Atom           X                Y                Z
 ----------------------------------------------------------------
    1      C       1.3998943396     0.1292016824     0.1705576188
    2      C       0.4934050615    -1.1416976160     0.2284060000
    3      C      -0.8690588938    -1.0052390977     0.3235183521
    4      C      -1.4923650526     0.2788323445     0.4329812965
    5      C      -0.7541238489     1.3851451823     0.1975018563
    6      N       0.5989639959     1.3093482806    -0.2497683122
    7      H       2.3786124742     0.3913942077     0.5977991293
    8      H       0.8743030028    -2.1608985182     0.0884149529
    9      H      -1.5039670419    -1.8907191006     0.3384144603
   10      H      -2.5410019750     0.3630115395     0.7053453322
   11      H      -1.1335005584     2.3844036770     0.4132515545
   12      C       1.1672431716     0.3105507270    -1.2414265509
   13      H       1.3245590270    -0.4431137161    -2.0171729146
 ----------------------------------------------------------------

    2    -286.7853984311      2.53E-09 Convergence criterion met
 Total energy in the final basis set = -286.78539843

         TDDFT/TDA Excitation Energies
 ---------------------------------------------------

 Excited state   1: excitation energy (eV) =    2.5447
 Total energy for state  1:                  -286.69188164 au
    <S**2>     :  1.2740
    Trans. Mom.:  0.0147 X   0.0811 Y  -0.0658 Z
    Strength   :     0.0006937684
    D( 24) --> V(  1) amplitude = -0.2428 alpha
    S(  1) --> V(  1) amplitude = -0.6004 alpha
    D( 24) --> S(  1) amplitude =  0.7463 beta

 Excited state   2: excitation energy (eV) =    3.1683
 Total energy for state  2:                  -286.66896415 au
    <S**2>     :  1.0548
    Trans. Mom.: -0.4915 X   0.1145 Y   0.1960 Z
    Strength   :     0.0227493297
    D( 24) --> V(  1) amplitude = -0.2931 alpha
    S(  1) --> V(  1) amplitude =  0.7486 alpha
    S(  1) --> V(  2) amplitude =  0.2191 alpha
    D( 24) --> S(  1) amplitude =  0.4957 beta
    D( 24) --> V(  1) amplitude =  0.1549 beta

 Excited state   3: excitation energy (eV) =    3.7639
 Total energy for state  3:                  -286.64707583 au
    <S**2>     :  1.8430
    Trans. Mom.: -0.2977 X   0.2023 Y   0.1088 Z
    Strength   :     0.0130387146
    D( 24) --> V(  1) amplitude =  0.6257 alpha
    D( 23) --> S(  1) amplitude =  0.1784 beta
    D( 24) --> S(  1) amplitude =  0.3752 beta
    D( 24) --> V(  1) amplitude = -0.5826 beta

 Excited state   4: excitation energy (eV) =    4.0895
 Total energy for state  4:                  -286.63511245 au
    <S**2>     :  1.0268
    Trans. Mom.: -0.0784 X   0.0827 Y   0.1763 Z
    Strength   :     0.0044136097
    D( 24) --> V(  1) amplitude = -0.1829 alpha
    S(  1) --> V(  2) amplitude = -0.4189 alpha
    D( 23) --> S(  1) amplitude =  0.8514 beta

 ---------------------------------------------------

                    Orbital Energies (a.u.)
 --------------------------------------------------------------

 Alpha MOs
 -- Occupied --
-14.368 -10.235 -10.232 -10.213 -10.210 -10.193 -10.184  -0.976
 -0.803  -0.773  -0.654  -0.622  -0.588  -0.522  -0.503  -0.470
 -0.444  -0.412  -0.395  -0.369  -0.334  -0.307  -0.272  -0.223
 -0.173

 Beta MOs
 -- Occupied --
-14.367 -10.235 -10.219 -10.212 -10.210 -10.190 -10.185  -0.970
 -0.798  -0.769  -0.649  -0.616  -0.571  -0.517  -0.499  -0.468
 -0.439  -0.409  -0.389  -0.366  -0.326  -0.297  -0.261  -0.216

          Ground-State Mulliken Net Atomic Charges

     Atom                 Charge (a.u.)    Spin (a.u.)
  --------------------------------------------------------
      1 C                    -0.027991      -0.026541
      2 C                    -0.180491      -0.148416
      3 C                    -0.110516       0.240211
      4 C                    -0.118171      -0.088607
      5 C                     0.008784       0.190522
      6 N                    -0.424032       0.009320
      7 H                     0.161206       0.010980
      8 H                     0.143931       0.006103
      9 H                     0.132674      -0.012062
     10 H                     0.131976       0.010153
     11 H                     0.146499      -0.010143
     12 C                    -0.047847       0.838476
     13 H                     0.183978      -0.019996
  --------------------------------------------------------
  Sum of atomic charges =    -0.000000

                    Cartesian Multipole Moments
 -----------------------------------------------------------------
    Charge (ESU x 10^10)
                 0.0000
    Dipole Moment (Debye)
         X      -0.2146      Y      -1.6606      Z       0.0749
       Tot       1.6761
    Quadrupole Moments (Debye-Ang)
        XX     -37.4473     XY      -2.6447     YY     -40.2056
        XZ      -0.8300     YZ       2.3629     ZZ     -41.9169

 Total job time:  155.13s(wall), 88.38s(cpu)
        *  Thank you very much for using Q-Chem.  Have a nice day.  *
