 Q-Chem 5.0, Q-Chem, Inc., Pleasanton, CA (2017)
 Q-Chem 5.0.2 for Intel X86 EM64T Linux

User input:
--------------------------------------------------------------
$molecule
0 2
C        1.3998943396    0.1292016824    0.1705576188
C        0.4934050615   -1.1416976160    0.2284060000
C       -0.8690588938   -1.0052390977    0.3235183521
C       -1.4923650526    0.2788323445    0.4329812965
C       -0.7541238489    1.3851451823    0.1975018563
N        0.5989639959    1.3093482806   -0.2497683122
H        2.3786124742    0.3913942077    0.5977991293
H        0.8743030028   -2.1608985182    0.0884149529
H       -1.5039670419   -1.8907191006    0.3384144603
H       -2.5410019750    0.3630115395    0.7053453322
H       -1.1335005584    2.3844036770    0.4132515545
C        1.1672431716    0.3105507270   -1.2414265509
H        1.3245590270   -0.4431137161   -2.0171729146
$end

$rem
method                b3lyp
basis                 6-31g(d)
unrestricted          true
symmetry              off
sym_ignore            true
incdft                false
incfock               0
scf_convergence       8
thresh                14
jobtype               freq
scf_guess             read
scf_algorithm         diis
max_scf_cycles        100
$end

--------------------------------------------------------------

             Standard Nuclear Orientation (Angstroms)
    I     Atom           X                Y                Z
 ----------------------------------------------------------------
    1      C       1.3998943396     0.1292016824     0.1705576188
    2      C       0.4934050615    -1.1416976160     0.2284060000
    3      C      -0.8690588938    -1.0052390977     0.3235183521
    4      C      -1.4923650526     0.2788323445     0.4329812965
    5      C      -0.7541238489     1.3851451823     0.1975018563
    6      N       0.5989639959     1.3093482806    -0.2497683122
    7      H       2.3786124742     0.3913942077     0.5977991293
    8      H       0.8743030028    -2.1608985182     0.0884149529
    9      H      -1.5039670419    -1.8907191006     0.3384144603
   10      H      -2.5410019750     0.3630115395     0.7053453322
   11      H      -1.1335005584     2.3844036770     0.4132515545
   12      C       1.1672431716     0.3105507270    -1.2414265509
   13      H       1.3245590270    -0.4431137161    -2.0171729146
 ----------------------------------------------------------------

    2    -286.7853984312      1.42E-09 Convergence criterion met
 Total energy in the final basis set = -286.78539843

                    Orbital Energies (a.u.)
 --------------------------------------------------------------

 Alpha MOs
 -- Occupied --
-14.368 -10.235 -10.232 -10.213 -10.210 -10.193 -10.184  -0.976
 -0.803  -0.773  -0.654  -0.622  -0.588  -0.522  -0.503  -0.470
 -0.444  -0.412  -0.395  -0.369  -0.334  -0.307  -0.272  -0.223
 -0.173

 Beta MOs
 -- Occupied --
-14.367 -10.235 -10.219 -10.212 -10.210 -10.190 -10.185  -0.970
 -0.798  -0.769  -0.649  -0.616  -0.571  -0.517  -0.499  -0.468
 -0.439  -0.409  -0.389  -0.366  -0.326  -0.297  -0.261  -0.216

          Ground-State Mulliken Net Atomic Charges

     Atom                 Charge (a.u.)    Spin (a.u.)
  --------------------------------------------------------
      1 C                    -0.027991      -0.026541
      2 C                    -0.180491      -0.148414
      3 C                    -0.110516       0.240210
      4 C                    -0.118171      -0.088606
      5 C                     0.008784       0.190521
      6 N                    -0.424032       0.009320
      7 H                     0.161206       0.010980
      8 H                     0.143931       0.006103
      9 H                     0.132674      -0.012062
     10 H                     0.131976       0.010153
     11 H                     0.146499      -0.010143
     12 C                    -0.047847       0.838476
     13 H                     0.183978      -0.019996
  --------------------------------------------------------
  Sum of atomic charges =    -0.000000

                    Cartesian Multipole Moments
 -----------------------------------------------------------------
    Charge (ESU x 10^10)
                 0.0000
    Dipole Moment (Debye)
         X      -0.2146      Y      -1.6606      Z       0.0749
       Tot       1.6761
    Quadrupole Moments (Debye-Ang)
        XX     -37.4473     XY      -2.6447     YY     -40.2056
        XZ      -0.8300     YZ       2.3629     ZZ     -41.9169

 Frequency:      -461.77                 258.90                 287.64
 Force Cnst:      0.2291                 0.1135                 0.1205
 Red. Mass:       1.8232                 2.8740                 2.4726
 IR Intens:       70.489                  2.122                 22.916
 Frequency:       396.81                 467.79                 550.04
 Force Cnst:      0.2609                 0.4079                 1.0040
 Red. Mass:       2.8123                 3.1636                 5.6322
 IR Intens:        6.178                 13.690                  7.124
 Frequency:       582.42                 653.11                 729.54
 Force Cnst:      0.7470                 0.8595                 0.4956
 Red. Mass:       3.7375                 3.4198                 1.5805
 IR Intens:        4.370                 10.262                 56.891
 Frequency:       749.67                 812.34                 816.39
 Force Cnst:      1.4660                 1.0589                 0.5818
 Red. Mass:       4.4273                 2.7234                 1.4816
 IR Intens:        3.958                 15.355                  2.025
 Frequency:       921.75                 953.35                 959.13
 Force Cnst:      0.6771                 0.8114                 0.7164
 Red. Mass:       1.3525                 1.5152                 1.3218
 IR Intens:        2.877                  1.180                  7.336
 Frequency:       967.33                1010.41                1070.39
 Force Cnst:      1.4184                 2.5236                 1.5101
 Red. Mass:       2.5727                 4.1955                 2.2371
 IR Intens:        0.965                  1.991                  7.201
 Frequency:      1085.89                1202.44                1214.77
 Force Cnst:      0.9877                 0.9465                 1.1023
 Red. Mass:       1.4217                 1.1111                 1.2678
 IR Intens:       14.943                  0.138                  3.355
 Frequency:      1268.84                1320.11                1379.38
 Force Cnst:      1.1662                 5.5525                 1.5398
 Red. Mass:       1.2294                 5.4078                 1.3736
 IR Intens:        3.051                  4.595                  9.082
 Frequency:      1450.52                1527.81                1651.04
 Force Cnst:      2.1971                 7.1339                 7.4775
 Red. Mass:       1.7724                 5.1872                 4.6558
 IR Intens:        2.620                  5.881                  4.720
 Frequency:      3051.01                3103.94                3134.71
 Force Cnst:      5.9783                 6.1789                 6.3371
 Red. Mass:       1.0900                 1.0885                 1.0946
 IR Intens:       38.584                  9.408                  0.931
 Frequency:      3161.84                3165.61                3200.31
 Force Cnst:      6.4052                 6.4447                 6.6147
 Red. Mass:       1.0874                 1.0915                 1.0962
 IR Intens:        1.148                 27.497                 22.637

 STANDARD THERMODYNAMIC QUANTITIES AT   298.15 K  AND     1.00 ATM

   This Molecule has  1 Imaginary Frequencies
   Zero point vibrational energy:       61.622 kcal/mol

   Atom    1 Element C  Has Mass   12.00000
   Atom    2 Element C  Has Mass   12.00000
   Atom    3 Element C  Has Mass   12.00000
   Atom    4 Element C  Has Mass   12.00000
   Atom    5 Element C  Has Mass   12.00000
   Atom    6 Element N  Has Mass   14.00307
   Atom    7 Element H  Has Mass    1.00783
   Atom    8 Element H  Has Mass    1.00783
   Atom    9 Element H  Has Mass    1.00783
   Atom   10 Element H  Has Mass    1.00783
   Atom   11 Element H  Has Mass    1.00783
   Atom   12 Element C  Has Mass   12.00000
   Atom   13 Element H  Has Mass    1.00783
   Molecular Mass:    92.050050 amu
   Principal axes and moments of inertia in amu*Bohr^2:
                             1           2           3
    Eigenvalues --      380.30117   489.18810   747.47293
          X               0.93407    -0.13931     0.32879
          Y               0.10438     0.98707     0.12166
          Z              -0.34149    -0.07932     0.93653
   Rotational Symmetry Number is   1
   The Molecule is an Asymmetric Top
   Translational Enthalpy:        0.889 kcal/mol
   Rotational Enthalpy:           0.889 kcal/mol
   Vibrational Enthalpy:         63.287 kcal/mol
   gas constant (RT):             0.592 kcal/mol
   Translational Entropy:        39.471  cal/mol.K
   Rotational Entropy:           26.433  cal/mol.K
   Vibrational Entropy:           8.055  cal/mol.K

   Total Enthalpy:               65.657 kcal/mol
   Total Entropy:                73.959  cal/mol.K

 Total job time:  333.94s(wall), 264.88s(cpu)
        *  Thank you very much for using Q-Chem.  Have a nice day.  *
