 Q-Chem 5.0, Q-Chem, Inc., Pleasanton, CA (2017)
 Q-Chem 5.0.2 for Intel X86 EM64T Linux

User input:
--------------------------------------------------------------
$molecule
0 2
C        1.3998943396    0.1292016824    0.1705576188
C        0.4934050615   -1.1416976160    0.2284060000
C       -0.8690588938   -1.0052390977    0.3235183521
C       -1.4923650526    0.2788323445    0.4329812965
C       -0.7541238489    1.3851451823    0.1975018563
N        0.5989639959    1.3093482806   -0.2497683122
H        2.3786124742    0.3913942077    0.5977991293
H        0.8743030028   -2.1608985182    0.0884149529
H       -1.5039670419   -1.8907191006    0.3384144603
H       -2.5410019750    0.3630115395    0.7053453322
H       -1.1335005584    2.3844036770    0.4132515545
C        1.1672431716    0.3105507270   -1.2414265509
H        1.3245590270   -0.4431137161   -2.0171729146
$end

$rem
method                b3lyp
basis                 6-31g(d)
unrestricted          true
symmetry              off
sym_ignore            true
incdft                false
incfock               0
scf_convergence       8
thresh                14
jobtype               ts
scf_guess             read
scf_algorithm         diis
max_scf_cycles        100
geom_opt_max_cycles   500
geom_opt_dmax         100
geom_opt_tol_gradient 10
geom_opt_hessian      read
$end

--------------------------------------------------------------

    2    -286.7853984312      5.08E-10 Convergence criterion met
 Total energy in the final basis set = -286.78539843
   15    -286.7882364704      5.96E-09 Convergence criterion met
 Total energy in the final basis set = -286.78823647
   15    -286.7917958854      6.34E-09 Convergence criterion met
 Total energy in the final basis set = -286.79179589
   14    -286.7954008269      3.90E-09 Convergence criterion met
 Total energy in the final basis set = -286.79540083
   15    -286.7989764900      5.32E-09 Convergence criterion met
 Total energy in the final basis set = -286.79897649
   15    -286.8024945708      6.31E-09 Convergence criterion met
 Total energy in the final basis set = -286.80249457
   15    -286.8059555628      6.68E-09 Convergence criterion met
 Total energy in the final basis set = -286.80595556
   15    -286.8093678097      7.15E-09 Convergence criterion met
   12    -286.8346319692      5.72E-09 Convergence criterion met
 Total energy in the final basis set = -286.83463197
   10    -286.8346323644      7.89E-09 Convergence criterion met
 Total energy in the final basis set = -286.83463236
   13    -286.8346236852      6.44E-09 Convergence criterion met
 Total energy in the final basis set = -286.83462369
   13    -286.8346325511      5.34E-09 Convergence criterion met
 Total energy in the final basis set = -286.83463255
    8    -286.8346325722      4.38E-09 Convergence criterion met
 Total energy in the final basis set = -286.83463257
    8    -286.8346325809      9.45E-09 Convergence criterion met
 Total energy in the final basis set = -286.83463258

             Standard Nuclear Orientation (Angstroms)
    I     Atom           X                Y                Z
 ----------------------------------------------------------------
    1      C       1.3663655259    -0.1740321422    -0.0162280658
    2      C       0.4553812523    -1.2618257250     0.3836124277
    3      C      -0.8835202121    -1.0810110349     0.4425326325
    4      C      -1.4786163171     0.2359120626     0.3044473825
    5      C      -0.7207500670     1.3271428338     0.0698572371
    6      N       0.6681080925     1.2651886755    -0.2200131266
    7      H       2.3280261842    -0.1147238047     0.5004259707
    8      H       0.9035721452    -2.2088796215     0.6766571924
    9      H      -1.5287671824    -1.9092259814     0.7240994786
   10      H      -2.5332300231     0.3620213794     0.5345527588
   11      H      -1.1053909338     2.3377961267     0.1812260220
   12      C       1.1621306822     0.5102897764    -1.2668281181
   13      H       1.3096545552     0.6215670477    -2.3265190166
 ----------------------------------------------------------------

    8    -286.8346325817      4.55E-09 Convergence criterion met
 Total energy in the final basis set = -286.83463258
 Final energy is   -286.834632581651
 **  OPTIMIZATION CONVERGED  **

                    Orbital Energies (a.u.)
 --------------------------------------------------------------

 Alpha MOs
 -- Occupied --
-14.358 -10.234 -10.219 -10.212 -10.194 -10.193 -10.187  -0.975
 -0.804  -0.774  -0.658  -0.640  -0.572  -0.518  -0.498  -0.482
 -0.445  -0.421  -0.387  -0.370  -0.357  -0.307  -0.281  -0.218
 -0.161

 Beta MOs
 -- Occupied --
-14.354 -10.235 -10.217 -10.199 -10.194 -10.193 -10.187  -0.966
 -0.802  -0.770  -0.650  -0.638  -0.555  -0.513  -0.493  -0.479
 -0.438  -0.414  -0.383  -0.366  -0.354  -0.293  -0.274  -0.209

          Ground-State Mulliken Net Atomic Charges

     Atom                 Charge (a.u.)    Spin (a.u.)
  --------------------------------------------------------
      1 C                    -0.089090      -0.061461
      2 C                    -0.100956      -0.003300
      3 C                    -0.137755       0.027557
      4 C                    -0.123880      -0.017310
      5 C                     0.015779       0.052971
      6 N                    -0.393822       0.105039
      7 H                     0.156264       0.018124
      8 H                     0.137681       0.000743
      9 H                     0.132834      -0.000922
     10 H                     0.131261       0.005923
     11 H                     0.149665      -0.002762
     12 C                    -0.036953       0.920693
     13 H                     0.158970      -0.045294
  --------------------------------------------------------
  Sum of atomic charges =    -0.000000

                    Cartesian Multipole Moments
 -----------------------------------------------------------------
    Charge (ESU x 10^10)
                -0.0000
    Dipole Moment (Debye)
         X      -0.4378      Y      -0.9310      Z      -0.0871
       Tot       1.0325
    Quadrupole Moments (Debye-Ang)
        XX     -37.8594     XY      -2.4268     YY     -39.7865
        XZ      -1.1713     YZ      -1.5962     ZZ     -40.2414

 Total job time:  2384.20s(wall), 2202.16s(cpu)
        *  Thank you very much for using Q-Chem.  Have a nice day.  *
