 Q-Chem 5.0, Q-Chem, Inc., Pleasanton, CA (2017)
 Q-Chem 5.0.2 for Intel X86 EM64T Linux

User input:
--------------------------------------------------------------
$molecule
0 2
C        1.3663655259   -0.1740321422   -0.0162280658
C        0.4553812523   -1.2618257250    0.3836124277
C       -0.8835202121   -1.0810110349    0.4425326325
C       -1.4786163171    0.2359120626    0.3044473825
C       -0.7207500670    1.3271428338    0.0698572371
N        0.6681080925    1.2651886755   -0.2200131266
H        2.3280261842   -0.1147238047    0.5004259707
H        0.9035721452   -2.2088796215    0.6766571924
H       -1.5287671824   -1.9092259814    0.7240994786
H       -2.5332300231    0.3620213794    0.5345527588
H       -1.1053909338    2.3377961267    0.1812260220
C        1.1621306822    0.5102897764   -1.2668281181
H        1.3096545552    0.6215670477   -2.3265190166
$end

$rem
method                b3lyp
basis                 6-31+g(d,p)
unrestricted          true
symmetry              off
sym_ignore            true
incdft                false
incfock               0
scf_convergence       6
thresh                14
jobtype               sp
scf_guess             read
scf_algorithm         diis
max_scf_cycles        100
stability_analysis    true
max_cis_cycles        100
cis_n_roots           4
$end

--------------------------------------------------------------

             Standard Nuclear Orientation (Angstroms)
    I     Atom           X                Y                Z
 ----------------------------------------------------------------
    1      C       1.3663655259    -0.1740321422    -0.0162280658
    2      C       0.4553812523    -1.2618257250     0.3836124277
    3      C      -0.8835202121    -1.0810110349     0.4425326325
    4      C      -1.4786163171     0.2359120626     0.3044473825
    5      C      -0.7207500670     1.3271428338     0.0698572371
    6      N       0.6681080925     1.2651886755    -0.2200131266
    7      H       2.3280261842    -0.1147238047     0.5004259707
    8      H       0.9035721452    -2.2088796215     0.6766571924
    9      H      -1.5287671824    -1.9092259814     0.7240994786
   10      H      -2.5332300231     0.3620213794     0.5345527588
   11      H      -1.1053909338     2.3377961267     0.1812260220
   12      C       1.1621306822     0.5102897764    -1.2668281181
   13      H       1.3096545552     0.6215670477    -2.3265190166
 ----------------------------------------------------------------

    2    -286.8575446480      2.22E-09 Convergence criterion met
 Total energy in the final basis set = -286.85754465

         TDDFT/TDA Excitation Energies
 ---------------------------------------------------

 Excited state   1: excitation energy (eV) =    2.3202
 Total energy for state  1:                  -286.77227760 au
    <S**2>     :  1.0300
    Trans. Mom.: -0.1347 X  -0.0073 Y   0.0481 Z
    Strength   :     0.0011656031
    S(  1) --> V(  1) amplitude =  0.9622 alpha
    D( 24) --> S(  1) amplitude = -0.1704 beta

 Excited state   2: excitation energy (eV) =    2.9601
 Total energy for state  2:                  -286.74876115 au
    <S**2>     :  2.3964
    Trans. Mom.: -0.1185 X   0.0437 Y   0.0616 Z
    Strength   :     0.0014327748
    D( 24) --> V(  1) amplitude = -0.6284 alpha
    S(  1) --> V(  1) amplitude =  0.2534 alpha
    D( 24) --> S(  1) amplitude =  0.5137 beta
    D( 24) --> V(  1) amplitude =  0.4817 beta

 Excited state   3: excitation energy (eV) =    3.4839
 Total energy for state  3:                  -286.72951525 au
    <S**2>     :  0.8752
    Trans. Mom.: -0.2940 X   0.1050 Y   0.2276 Z
    Strength   :     0.0127400224
    D( 24) --> V(  1) amplitude =  0.1726 alpha
    D( 24) --> S(  1) amplitude =  0.7680 beta
    D( 24) --> V(  1) amplitude = -0.5902 beta

 Excited state   4: excitation energy (eV) =    4.0879
 Total energy for state  4:                  -286.70731753 au
    <S**2>     :  0.8757
    Trans. Mom.: -0.0946 X  -0.1435 Y   0.0107 Z
    Strength   :     0.0029688271
    S(  1) --> V(  2) amplitude =  0.2729 alpha
    S(  1) --> V(  3) amplitude = -0.7094 alpha
    S(  1) --> V(  4) amplitude =  0.3373 alpha
    S(  1) --> V(  5) amplitude = -0.4251 alpha
    S(  1) --> V(  6) amplitude =  0.2550 alpha

 ---------------------------------------------------

                    Orbital Energies (a.u.)
 --------------------------------------------------------------

 Alpha MOs
 -- Occupied --
-14.372 -10.245 -10.230 -10.225 -10.206 -10.204 -10.199  -0.989
 -0.816  -0.786  -0.670  -0.651  -0.582  -0.527  -0.508  -0.491
 -0.455  -0.431  -0.398  -0.380  -0.368  -0.319  -0.292  -0.230
 -0.175

 Beta MOs
 -- Occupied --
-14.369 -10.246 -10.229 -10.213 -10.206 -10.204 -10.199  -0.979
 -0.814  -0.782  -0.661  -0.649  -0.565  -0.523  -0.503  -0.489
 -0.448  -0.425  -0.394  -0.376  -0.365  -0.305  -0.286  -0.221

          Ground-State Mulliken Net Atomic Charges

     Atom                 Charge (a.u.)    Spin (a.u.)
  --------------------------------------------------------
      1 C                    -0.075042      -0.142798
      2 C                    -0.029473       0.037336
      3 C                    -0.197509       0.010449
      4 C                     0.093916       0.049465
      5 C                    -0.254262      -0.047999
      6 N                    -0.145977       0.102645
      7 H                     0.146545       0.017684
      8 H                     0.131931       0.000495
      9 H                     0.127003      -0.000942
     10 H                     0.126651       0.005121
     11 H                     0.136893      -0.003009
     12 C                    -0.213055       1.012142
     13 H                     0.152378      -0.040587
  --------------------------------------------------------
  Sum of atomic charges =     0.000000

                    Cartesian Multipole Moments
 -----------------------------------------------------------------
    Charge (ESU x 10^10)
                 0.0000
    Dipole Moment (Debye)
         X      -0.4344      Y      -0.9946      Z      -0.0318
       Tot       1.0858
    Quadrupole Moments (Debye-Ang)
        XX     -39.0104     XY      -2.6365     YY     -41.2092
        XZ      -1.2863     YZ      -1.7542     ZZ     -41.9679

 Total job time:  342.95s(wall), 205.81s(cpu)
        *  Thank you very much for using Q-Chem.  Have a nice day.  *
