 Q-Chem 5.0, Q-Chem, Inc., Pleasanton, CA (2017)
 Q-Chem 5.0.2 for Intel X86 EM64T Linux

User input:
--------------------------------------------------------------
$molecule
0 2
C        1.3663655259   -0.1740321422   -0.0162280658
C        0.4553812523   -1.2618257250    0.3836124277
C       -0.8835202121   -1.0810110349    0.4425326325
C       -1.4786163171    0.2359120626    0.3044473825
C       -0.7207500670    1.3271428338    0.0698572371
N        0.6681080925    1.2651886755   -0.2200131266
H        2.3280261842   -0.1147238047    0.5004259707
H        0.9035721452   -2.2088796215    0.6766571924
H       -1.5287671824   -1.9092259814    0.7240994786
H       -2.5332300231    0.3620213794    0.5345527588
H       -1.1053909338    2.3377961267    0.1812260220
C        1.1621306822    0.5102897764   -1.2668281181
H        1.3096545552    0.6215670477   -2.3265190166
$end

$rem
method                b3lyp
basis                 6-31g(d)
unrestricted          true
symmetry              off
sym_ignore            true
incdft                false
incfock               0
scf_convergence       8
thresh                14
jobtype               sp
scf_guess             read
scf_algorithm         diis
max_scf_cycles        100
$end

--------------------------------------------------------------

             Standard Nuclear Orientation (Angstroms)
    I     Atom           X                Y                Z
 ----------------------------------------------------------------
    1      C       1.3663655259    -0.1740321422    -0.0162280658
    2      C       0.4553812523    -1.2618257250     0.3836124277
    3      C      -0.8835202121    -1.0810110349     0.4425326325
    4      C      -1.4786163171     0.2359120626     0.3044473825
    5      C      -0.7207500670     1.3271428338     0.0698572371
    6      N       0.6681080925     1.2651886755    -0.2200131266
    7      H       2.3280261842    -0.1147238047     0.5004259707
    8      H       0.9035721452    -2.2088796215     0.6766571924
    9      H      -1.5287671824    -1.9092259814     0.7240994786
   10      H      -2.5332300231     0.3620213794     0.5345527588
   11      H      -1.1053909338     2.3377961267     0.1812260220
   12      C       1.1621306822     0.5102897764    -1.2668281181
   13      H       1.3096545552     0.6215670477    -2.3265190166
 ----------------------------------------------------------------

    2    -286.8346325817      3.16E-09 Convergence criterion met
 Total energy in the final basis set = -286.83463258

                    Orbital Energies (a.u.)
 --------------------------------------------------------------

 Alpha MOs
 -- Occupied --
-14.358 -10.234 -10.219 -10.212 -10.194 -10.193 -10.187  -0.975
 -0.804  -0.774  -0.658  -0.640  -0.572  -0.518  -0.498  -0.482
 -0.445  -0.421  -0.387  -0.370  -0.357  -0.307  -0.281  -0.218
 -0.161

 Beta MOs
 -- Occupied --
-14.354 -10.235 -10.217 -10.199 -10.194 -10.193 -10.187  -0.966
 -0.802  -0.770  -0.650  -0.638  -0.555  -0.513  -0.493  -0.479
 -0.438  -0.414  -0.383  -0.366  -0.354  -0.293  -0.274  -0.209

          Ground-State Mulliken Net Atomic Charges

     Atom                 Charge (a.u.)    Spin (a.u.)
  --------------------------------------------------------
      1 C                    -0.089090      -0.061461
      2 C                    -0.100956      -0.003299
      3 C                    -0.137755       0.027557
      4 C                    -0.123880      -0.017310
      5 C                     0.015779       0.052971
      6 N                    -0.393822       0.105039
      7 H                     0.156264       0.018124
      8 H                     0.137681       0.000743
      9 H                     0.132834      -0.000922
     10 H                     0.131261       0.005923
     11 H                     0.149665      -0.002762
     12 C                    -0.036953       0.920693
     13 H                     0.158970      -0.045294
  --------------------------------------------------------
  Sum of atomic charges =     0.000000

                    Cartesian Multipole Moments
 -----------------------------------------------------------------
    Charge (ESU x 10^10)
                 0.0000
    Dipole Moment (Debye)
         X      -0.4378      Y      -0.9310      Z      -0.0871
       Tot       1.0325
    Quadrupole Moments (Debye-Ang)
        XX     -37.8594     XY      -2.4268     YY     -39.7865
        XZ      -1.1713     YZ      -1.5962     ZZ     -40.2414

 Total job time:  36.63s(wall), 7.08s(cpu)
        *  Thank you very much for using Q-Chem.  Have a nice day.  *
