 Q-Chem 5.0, Q-Chem, Inc., Pleasanton, CA (2017)
 Q-Chem 5.0.2 for Intel X86 EM64T Linux

User input:
--------------------------------------------------------------
$molecule
0 2
C        1.3117809802    0.1673483396   -0.9925875511
C        0.4811469191   -1.1719194764   -1.0522151987
C       -0.8613244858   -0.5978087701   -2.2337278871
C       -1.2213772270   -0.0705374846   -0.4110464049
C       -0.6837501058    0.8644124616   -1.7597789320
N        0.9203788460    1.3098886415   -1.4874700990
H        1.9844053711    0.0317337724   -0.1296471705
H        1.0928299156   -2.1018536033   -0.9811903920
H       -1.4217606792   -1.5648942444   -2.5191453618
H       -2.1123763881    0.1034545586    0.2013547797
H       -1.4393011886    1.5833682363   -2.0396387451
C       -0.0105286731   -0.5654325375    0.3221698835
H        0.5272188037   -0.5059994611    1.2518698862
$end

$rem
method                b3lyp
basis                 6-31g(d)
unrestricted          true
symmetry              off
sym_ignore            true
incdft                false
incfock               0
scf_convergence       8
thresh                14
jobtype               opt
scf_guess             read
scf_algorithm         diis
max_scf_cycles        100
geom_opt_tol_gradient 600
geom_opt_tol_displacement 2400
geom_opt_tol_energy   200
geom_opt_max_cycles   100
$end

--------------------------------------------------------------

    2    -286.6401549727      1.16E-09 Convergence criterion met
 Total energy in the final basis set = -286.64015497
   17    -286.6812759656      8.67E-09 Convergence criterion met
 Total energy in the final basis set = -286.68127597
   16    -286.7170391294      6.92E-09 Convergence criterion met
 Total energy in the final basis set = -286.71703913
   15    -286.7467368957      8.56E-09 Convergence criterion met
 Total energy in the final basis set = -286.74673690
   15    -286.7703568701      8.13E-09 Convergence criterion met
 Total energy in the final basis set = -286.77035687
   15    -286.7883947564      6.36E-09 Convergence criterion met
 Total energy in the final basis set = -286.78839476
   15    -286.8020471501      5.89E-09 Convergence criterion met
 Total energy in the final basis set = -286.80204715
   14    -286.8125781247      8.99E-09 Convergence criterion met
   14    -286.8352314603      3.65E-09 Convergence criterion met
 Total energy in the final basis set = -286.83523146
   14    -286.8372721929      4.76E-09 Convergence criterion met
 Total energy in the final basis set = -286.83727219
   14    -286.8382192942      5.05E-09 Convergence criterion met
 Total energy in the final basis set = -286.83821929
   13    -286.8383377262      7.00E-09 Convergence criterion met
 Total energy in the final basis set = -286.83833773
   11    -286.8383525558      3.95E-09 Convergence criterion met
 Total energy in the final basis set = -286.83835256
   10    -286.8383610547      7.26E-09 Convergence criterion met
 Total energy in the final basis set = -286.83836105

             Standard Nuclear Orientation (Angstroms)
    I     Atom           X                Y                Z
 ----------------------------------------------------------------
    1      C       1.4172254241     0.1903542959    -1.1051230073
    2      C       0.5664519353    -1.0579093739    -0.9047990077
    3      C      -0.7356265113    -0.6800084142    -1.6988554439
    4      C      -1.2747209617    -0.0703880816    -0.3902047602
    5      C      -0.6268817638     0.7960075818    -1.5638111447
    6      N       0.7391118942     1.2326756726    -1.4225077576
    7      H       2.4798345924     0.2471229195    -0.8741819991
    8      H       1.0531778625    -2.0286138138    -1.0217522240
    9      H      -1.2526869256    -1.2572750021    -2.4592708152
   10      H      -2.2913747605     0.1621908078    -0.0889019295
   11      H      -1.3183049095     1.4671853258    -2.0629977358
   12      C      -0.2445442234    -0.7767179015     0.3583901810
   13      H       0.0556804354    -0.7428635836     1.4029624512
 ----------------------------------------------------------------

   10    -286.8383625860      8.26E-09 Convergence criterion met
 Total energy in the final basis set = -286.83836259
 Final energy is   -286.838362585952
 **  OPTIMIZATION CONVERGED  **

                    Orbital Energies (a.u.)
 --------------------------------------------------------------

 Alpha MOs
 -- Occupied --
-14.320 -10.223 -10.220 -10.210 -10.209 -10.208 -10.205  -0.968
 -0.856  -0.749  -0.664  -0.606  -0.571  -0.535  -0.516  -0.467
 -0.439  -0.405  -0.400  -0.356  -0.336  -0.298  -0.274  -0.256
 -0.182

 Beta MOs
 -- Occupied --
-14.319 -10.222 -10.219 -10.211 -10.209 -10.207 -10.193  -0.964
 -0.850  -0.741  -0.652  -0.601  -0.567  -0.528  -0.511  -0.461
 -0.434  -0.402  -0.394  -0.348  -0.332  -0.291  -0.262  -0.251

          Ground-State Mulliken Net Atomic Charges

     Atom                 Charge (a.u.)    Spin (a.u.)
  --------------------------------------------------------
      1 C                     0.088743       0.047217
      2 C                    -0.258783      -0.065788
      3 C                    -0.107841       0.078404
      4 C                    -0.163845      -0.096121
      5 C                    -0.019086       0.096982
      6 N                    -0.342221       0.039230
      7 H                     0.142900       0.001359
      8 H                     0.142876       0.022656
      9 H                     0.148136      -0.000758
     10 H                     0.147163       0.005294
     11 H                     0.151341       0.002850
     12 C                    -0.065769       0.888215
     13 H                     0.136385      -0.019542
  --------------------------------------------------------
  Sum of atomic charges =    -0.000000

                    Cartesian Multipole Moments
 -----------------------------------------------------------------
    Charge (ESU x 10^10)
                -0.0000
    Dipole Moment (Debye)
         X      -0.7800      Y      -1.8878      Z       0.2070
       Tot       2.0530
    Quadrupole Moments (Debye-Ang)
        XX     -36.8874     XY      -3.5140     YY     -43.7721
        XZ       2.7578     YZ       3.0260     ZZ     -40.1312

 Total job time:  581.92s(wall), 794.19s(cpu)
        *  Thank you very much for using Q-Chem.  Have a nice day.  *
