 Q-Chem 5.0, Q-Chem, Inc., Pleasanton, CA (2017)
 Q-Chem 5.0.2 for Intel X86 EM64T Linux

User input:
--------------------------------------------------------------
$molecule
0 2
C        1.2467903328    0.2391493530    0.2452889900
C        0.5671291017   -1.1296078278   -0.2130786642
C       -0.7462328251   -0.8837993413   -0.7938688356
C       -1.0526486561    0.2204303567    0.2141082371
C       -0.4347294886    1.4776613843   -0.3838562609
N        0.8482391741    1.4593432948   -0.4109522628
H        2.2856112669    0.1481923634    0.5460922891
H        1.2042191783   -2.0016887613   -0.3225968500
H       -1.1575096410   -1.0762076433   -1.7821280533
H       -2.0596013823    0.2974853457    0.6304837076
H       -1.0062005099    2.2666915076   -0.8701299983
C        0.1476016803   -0.3534424927    1.0501550238
H        0.1573317683   -0.6642075387    2.0904826776
$end

$rem
method                b3lyp
basis                 6-31g(d)
unrestricted          true
symmetry              off
sym_ignore            true
incdft                false
incfock               0
scf_convergence       8
thresh                14
jobtype               opt
scf_guess             read
scf_algorithm         diis
max_scf_cycles        100
geom_opt_tol_gradient 600
geom_opt_tol_displacement 2400
geom_opt_tol_energy   200
geom_opt_max_cycles   100
$end

--------------------------------------------------------------

    2    -286.8383360532      3.49E-09 Convergence criterion met
 Total energy in the final basis set = -286.83833605

             Standard Nuclear Orientation (Angstroms)
    I     Atom           X                Y                Z
 ----------------------------------------------------------------
    1      C       1.2470301396     0.2393236814     0.2457197018
    2      C       0.5670878885    -1.1297041468    -0.2132417893
    3      C      -0.7464277721    -0.8838403785    -0.7936744426
    4      C      -1.0529180798     0.2208573982     0.2151014599
    5      C      -0.4347147978     1.4784449889    -0.3834376194
    6      N       0.8481595733     1.4591236470    -0.4110902141
    7      H       2.2860824675     0.1487928383     0.5457773212
    8      H       1.2044559274    -2.0015975788    -0.3227014162
    9      H      -1.1573193275    -1.0757825476    -1.7821530820
   10      H      -2.0599876580     0.2976371034     0.6311197317
   11      H      -1.0060070038     2.2662030812    -0.8720606112
   12      C       0.1476666847    -0.3539395406     1.0502308212
   13      H       0.1568919573    -0.6655185457     2.0904101392
 ----------------------------------------------------------------

    9    -286.8383379605      9.54E-09 Convergence criterion met
 Total energy in the final basis set = -286.83833796
 Final energy is   -286.838337960478
 **  OPTIMIZATION CONVERGED  **

                    Orbital Energies (a.u.)
 --------------------------------------------------------------

 Alpha MOs
 -- Occupied --
-14.320 -10.224 -10.220 -10.210 -10.209 -10.208 -10.206  -0.968
 -0.856  -0.749  -0.664  -0.606  -0.571  -0.535  -0.516  -0.467
 -0.439  -0.405  -0.400  -0.356  -0.336  -0.298  -0.274  -0.256
 -0.182

 Beta MOs
 -- Occupied --
-14.319 -10.222 -10.219 -10.211 -10.209 -10.207 -10.193  -0.964
 -0.850  -0.741  -0.652  -0.601  -0.567  -0.528  -0.511  -0.461
 -0.434  -0.402  -0.394  -0.348  -0.332  -0.292  -0.262  -0.251

          Ground-State Mulliken Net Atomic Charges

     Atom                 Charge (a.u.)    Spin (a.u.)
  --------------------------------------------------------
      1 C                    -0.019005       0.096756
      2 C                    -0.163799      -0.095817
      3 C                    -0.066282       0.888561
      4 C                    -0.258018      -0.065696
      5 C                     0.088825       0.047025
      6 N                    -0.342272       0.039034
      7 H                     0.151365       0.002873
      8 H                     0.147260       0.005277
      9 H                     0.136204      -0.019174
     10 H                     0.142769       0.022713
     11 H                     0.143048       0.001387
     12 C                    -0.108252       0.077841
     13 H                     0.148158      -0.000780
  --------------------------------------------------------
  Sum of atomic charges =    -0.000000

                    Cartesian Multipole Moments
 -----------------------------------------------------------------
    Charge (ESU x 10^10)
                -0.0000
    Dipole Moment (Debye)
         X      -1.1704      Y      -1.4397      Z       0.8647
       Tot       2.0470
    Quadrupole Moments (Debye-Ang)
        XX     -38.8694     XY      -5.0048     YY     -42.9695
        XZ       2.2387     YZ       0.6297     ZZ     -39.4862

 Total job time:  39.41s(wall), 47.37s(cpu)
        *  Thank you very much for using Q-Chem.  Have a nice day.  *
