 Q-Chem 5.0, Q-Chem, Inc., Pleasanton, CA (2017)
 Q-Chem 5.0.2 for Intel X86 EM64T Linux

User input:
--------------------------------------------------------------
$molecule
0 2
C        1.3233178873    0.1806141673   -1.4240208838
C        0.5665793148   -1.0427674059   -1.1870631495
C       -0.6102910794   -0.6362643999   -2.1186573986
C       -1.0424453039    0.1720568975   -0.5057290152
C       -0.6221362574    0.8925167631   -2.0767962277
N        0.7205195312    1.3552423938   -1.7019215392
H        2.4227245565    0.2535797123   -1.5043409799
H        1.1460349668   -1.9102322802   -1.6005362015
H       -1.4666981316   -1.4079627156   -2.2477103874
H       -1.9695196139    0.6829921437   -0.2787122648
H       -1.1377616556    1.5882396513   -2.7735770705
C       -0.3769403736   -1.0449930989    0.0351522828
H       -0.2317932879   -1.0419464136    1.0596189249
$end

$rem
method                b3lyp
basis                 6-31g(d)
unrestricted          true
symmetry              off
sym_ignore            true
incdft                false
incfock               0
scf_convergence       8
thresh                14
jobtype               opt
scf_guess             read
scf_algorithm         diis
max_scf_cycles        100
geom_opt_tol_gradient 600
geom_opt_tol_displacement 2400
geom_opt_tol_energy   200
geom_opt_max_cycles   100
$end

--------------------------------------------------------------

    2    -286.7129297455      2.11E-09 Convergence criterion met
 Total energy in the final basis set = -286.71292975
   18    -286.7454502266      9.40E-09 Convergence criterion met
 Total energy in the final basis set = -286.74545023
   18    -286.7693593534      3.50E-09 Convergence criterion met
 Total energy in the final basis set = -286.76935935
   17    -286.7865105026      7.29E-09 Convergence criterion met
 Total energy in the final basis set = -286.78651050
   16    -286.7997153637      8.40E-09 Convergence criterion met
 Total energy in the final basis set = -286.79971536
   16    -286.8095575282      5.23E-09 Convergence criterion met
 Total energy in the final basis set = -286.80955753
   16    -286.8165979331      4.12E-09 Convergence criterion met
 Total energy in the final basis set = -286.81659793
   16    -286.8220266366      3.42E-09 Convergence criterion met
   14    -286.8511321872      3.00E-09 Convergence criterion met
 Total energy in the final basis set = -286.85113219
   12    -286.8514684812      7.95E-09 Convergence criterion met
 Total energy in the final basis set = -286.85146848
   13    -286.8515817990      5.34E-09 Convergence criterion met
 Total energy in the final basis set = -286.85158180
   13    -286.8516121062      6.10E-09 Convergence criterion met
 Total energy in the final basis set = -286.85161211
   11    -286.8516248353      7.83E-09 Convergence criterion met
 Total energy in the final basis set = -286.85162484
   10    -286.8516282111      9.06E-09 Convergence criterion met
 Total energy in the final basis set = -286.85162821

             Standard Nuclear Orientation (Angstroms)
    I     Atom           X                Y                Z
 ----------------------------------------------------------------
    1      C       1.4135438542     0.2277364549    -1.5191722849
    2      C       0.5494785937    -1.0282071739    -1.2873238513
    3      C      -0.4688320323    -0.7185628639    -2.3891305958
    4      C      -1.1219398365     0.3548909344    -0.4720694622
    5      C      -0.7037379703     0.7073634268    -1.9090364680
    6      N       0.7204575102     1.2403656815    -1.8688269014
    7      H       2.4922674587     0.2764653483    -1.3805374148
    8      H       1.0564049737    -1.9929340385    -1.2640822477
    9      H      -1.2739202374    -1.4036069051    -2.6494256637
   10      H      -1.8659920569     0.8889403176     0.1086097438
   11      H      -1.3643936079     1.3695142194    -2.4665837972
   12      C      -0.3648146627    -0.6875558768    -0.0930409621
   13      H      -0.3469314331    -1.1933341097     0.8663259950
 ----------------------------------------------------------------

   10    -286.8516290978      4.71E-09 Convergence criterion met
 Total energy in the final basis set = -286.85162910
 Final energy is   -286.851629097843
 **  OPTIMIZATION CONVERGED  **

                    Orbital Energies (a.u.)
 --------------------------------------------------------------

 Alpha MOs
 -- Occupied --
-14.322 -10.223 -10.220 -10.210 -10.204 -10.201 -10.197  -0.952
 -0.821  -0.726  -0.705  -0.579  -0.573  -0.531  -0.512  -0.472
 -0.418  -0.410  -0.381  -0.373  -0.348  -0.294  -0.271  -0.258
 -0.196

 Beta MOs
 -- Occupied --
-14.321 -10.224 -10.221 -10.210 -10.200 -10.196 -10.190  -0.949
 -0.815  -0.725  -0.690  -0.577  -0.561  -0.527  -0.509  -0.463
 -0.414  -0.406  -0.379  -0.369  -0.342  -0.287  -0.261  -0.255

          Ground-State Mulliken Net Atomic Charges

     Atom                 Charge (a.u.)    Spin (a.u.)
  --------------------------------------------------------
      1 C                     0.092129      -0.008817
      2 C                    -0.245879      -0.043935
      3 C                    -0.096458       0.975763
      4 C                    -0.088217       0.040566
      5 C                    -0.094571      -0.045153
      6 N                    -0.324997       0.021949
      7 H                     0.149680      -0.000175
      8 H                     0.133849       0.002865
      9 H                     0.138906      -0.026625
     10 H                     0.146068       0.000887
     11 H                     0.139824       0.003037
     12 C                    -0.095953       0.079335
     13 H                     0.145619       0.000305
  --------------------------------------------------------
  Sum of atomic charges =    -0.000000

                    Cartesian Multipole Moments
 -----------------------------------------------------------------
    Charge (ESU x 10^10)
                -0.0000
    Dipole Moment (Debye)
         X      -0.6565      Y      -1.9231      Z       1.2271
       Tot       2.3739
    Quadrupole Moments (Debye-Ang)
        XX     -37.2079     XY      -3.4896     YY     -42.6206
        XZ       1.9120     YZ       2.9199     ZZ     -44.0199

 Total job time:  790.03s(wall), 1100.19s(cpu)
        *  Thank you very much for using Q-Chem.  Have a nice day.  *
