 Q-Chem 5.0, Q-Chem, Inc., Pleasanton, CA (2017)
 Q-Chem 5.0.2 for Intel X86 EM64T Linux

User input:
--------------------------------------------------------------
$molecule
0 2
C        1.6778233228    0.3205666990   -2.3811638376
C        1.3187461188   -1.1065389738   -2.3511423657
C       -0.1545992437   -1.2852344601   -2.4260283724
C       -1.3697320456    0.4468150077   -0.9501780646
C       -0.8260331844    1.1192927739   -2.1501840117
N        0.8515455422    1.3461072439   -2.7886875605
H        2.7926228039    0.6434975734   -2.3872309280
H        1.9745733950   -1.8542104706   -1.8440884672
H       -0.2907687003   -1.4360619057   -3.4878029308
H       -1.0360176072    0.8338351958    0.0201174472
H       -1.7737316242    1.5219500201   -2.6407769347
C       -1.6420507423   -0.9457328100   -1.1156467098
H       -1.9388479093   -1.7508673019   -0.4423459156
$end

$rem
method                b3lyp
basis                 6-31g(d)
unrestricted          true
symmetry              off
sym_ignore            true
incdft                false
incfock               0
scf_convergence       8
thresh                14
jobtype               opt
scf_guess             read
scf_algorithm         diis
max_scf_cycles        100
geom_opt_tol_gradient 600
geom_opt_tol_displacement 2400
geom_opt_tol_energy   200
geom_opt_max_cycles   100
$end

--------------------------------------------------------------

    2    -286.5877433464      5.60E-09 Convergence criterion met
 Total energy in the final basis set = -286.58774335
   20    -286.6430874522      9.08E-09 Convergence criterion met
 Total energy in the final basis set = -286.64308745
   20    -286.6952452699      5.88E-09 Convergence criterion met
 Total energy in the final basis set = -286.69524527
   18    -286.7425620681      4.93E-09 Convergence criterion met
 Total energy in the final basis set = -286.74256207
   19    -286.7816333387      6.54E-09 Convergence criterion met
 Total energy in the final basis set = -286.78163334
   19    -286.8072292042      5.62E-09 Convergence criterion met
 Total energy in the final basis set = -286.80722920
   18    -286.8220107331      4.96E-09 Convergence criterion met
 Total energy in the final basis set = -286.82201073
   16    -286.8329242316      8.47E-09 Convergence criterion met
   15    -286.9242523273      4.96E-09 Convergence criterion met
 Total energy in the final basis set = -286.92425233
   15    -286.9242960251      3.86E-09 Convergence criterion met
 Total energy in the final basis set = -286.92429603
   15    -286.9243242796      2.52E-09 Convergence criterion met
 Total energy in the final basis set = -286.92432428
   13    -286.9243322818      7.88E-09 Convergence criterion met
 Total energy in the final basis set = -286.92433228
   13    -286.9243356283      6.14E-09 Convergence criterion met
 Total energy in the final basis set = -286.92433563
   12    -286.9243383249      8.84E-09 Convergence criterion met
 Total energy in the final basis set = -286.92433832

             Standard Nuclear Orientation (Angstroms)
    I     Atom           X                Y                Z
 ----------------------------------------------------------------
    1      C       1.4592094057     0.3180093837    -2.5519582768
    2      C       1.1581480854    -1.0254627221    -2.4235532757
    3      C      -0.0493889222    -1.6221330247    -1.9124771935
    4      C      -1.3420081349     0.4560690122    -1.3623855052
    5      C      -0.4660415755     1.4581233083    -1.7340698238
    6      N       0.7798743524     1.4522171739    -2.2644301161
    7      H       2.4459431363     0.5279161823    -2.9709861217
    8      H       1.9328470366    -1.7144088806    -2.7516822503
    9      H      -0.0727056321    -2.7100124881    -1.9027797053
   10      H      -2.2937598311     0.7904131839    -0.9564739183
   11      H      -0.8370815220     2.4730702276    -1.5751359160
   12      C      -1.1511038018    -0.9698493187    -1.4452474918
   13      H      -1.9804024710    -1.5805334458    -1.0939790569
 ----------------------------------------------------------------

   13    -286.9243391143      3.81E-09 Convergence criterion met
 Total energy in the final basis set = -286.92433911
 Final energy is   -286.924339114312
 **  OPTIMIZATION CONVERGED  **

                    Orbital Energies (a.u.)
 --------------------------------------------------------------

 Alpha MOs
 -- Occupied --
-14.322 -10.232 -10.232 -10.212 -10.211 -10.201 -10.200  -0.922
 -0.818  -0.784  -0.693  -0.667  -0.551  -0.537  -0.518  -0.449
 -0.439  -0.414  -0.394  -0.387  -0.349  -0.322  -0.299  -0.251
 -0.162

 Beta MOs
 -- Occupied --
-14.314 -10.233 -10.233 -10.210 -10.210 -10.196 -10.196  -0.911
 -0.809  -0.777  -0.681  -0.665  -0.546  -0.535  -0.514  -0.447
 -0.438  -0.411  -0.383  -0.373  -0.348  -0.295  -0.276  -0.241

          Ground-State Mulliken Net Atomic Charges

     Atom                 Charge (a.u.)    Spin (a.u.)
  --------------------------------------------------------
      1 C                     0.035895      -0.114247
      2 C                    -0.131906       0.349788
      3 C                    -0.110998       0.090387
      4 C                    -0.131090       0.344433
      5 C                     0.035118      -0.111088
      6 N                    -0.423247       0.386808
      7 H                     0.142606       0.003482
      8 H                     0.134356      -0.018464
      9 H                     0.141949      -0.006476
     10 H                     0.134406      -0.018215
     11 H                     0.142619       0.003326
     12 C                    -0.111617       0.097061
     13 H                     0.141909      -0.006797
  --------------------------------------------------------
  Sum of atomic charges =     0.000000

                    Cartesian Multipole Moments
 -----------------------------------------------------------------
    Charge (ESU x 10^10)
                 0.0000
    Dipole Moment (Debye)
         X      -0.9870      Y      -1.9697      Z       0.4217
       Tot       2.2432
    Quadrupole Moments (Debye-Ang)
        XX     -37.1713     XY      -2.8952     YY     -39.8555
        XZ      -0.7198     YZ       5.0433     ZZ     -43.8761

 Total job time:  1307.84s(wall), 1759.67s(cpu)
        *  Thank you very much for using Q-Chem.  Have a nice day.  *
