 Q-Chem 5.0, Q-Chem, Inc., Pleasanton, CA (2017)
 Q-Chem 5.0.2 for Intel X86 EM64T Linux

User input:
--------------------------------------------------------------
$molecule
0 2
C        1.9603928520    0.1280087969   -0.2422829642
C        0.9837353630   -0.7955943879   -0.1702433519
C       -0.3082582248   -0.1064221140   -0.5192521131
C       -1.4483460323   -0.2087906491    0.4775875074
C        0.1987930104    1.3087239417   -0.7331000817
N        1.4740018516    1.4255649309   -0.5897763341
H        3.0221585247    0.0010948703   -0.0709660881
H        1.0790380372   -1.8445157441    0.0767773106
H       -0.6748689841   -0.4730966672   -1.4954601086
H       -2.3700415208    0.3121593461    0.1875650985
H       -0.4318909384    2.1546826749   -0.9955524170
C       -1.4094958829   -0.8536273433    1.6223454048
H       -2.0752180555   -1.0481876552    2.4523581373
$end

$rem
method                b3lyp
basis                 6-31+g(d,p)
unrestricted          true
symmetry              off
sym_ignore            true
incdft                false
incfock               0
scf_convergence       8
thresh                14
jobtype               sp
scf_guess             read
scf_algorithm         diis
max_scf_cycles        100
scf_final_print       1
$end

--------------------------------------------------------------

             Standard Nuclear Orientation (Angstroms)
    I     Atom           X                Y                Z
 ----------------------------------------------------------------
    1      C       1.9603928520     0.1280087969    -0.2422829642
    2      C       0.9837353630    -0.7955943879    -0.1702433519
    3      C      -0.3082582248    -0.1064221140    -0.5192521131
    4      C      -1.4483460323    -0.2087906491     0.4775875074
    5      C       0.1987930104     1.3087239417    -0.7331000817
    6      N       1.4740018516     1.4255649309    -0.5897763341
    7      H       3.0221585247     0.0010948703    -0.0709660881
    8      H       1.0790380372    -1.8445157441     0.0767773106
    9      H      -0.6748689841    -0.4730966672    -1.4954601086
   10      H      -2.3700415208     0.3121593461     0.1875650985
   11      H      -0.4318909384     2.1546826749    -0.9955524170
   12      C      -1.4094958829    -0.8536273433     1.6223454048
   13      H      -2.0752180555    -1.0481876552     2.4523581373
 ----------------------------------------------------------------

    2    -286.8689844902      3.11E-09 Convergence criterion met
 Total energy in the final basis set = -286.86898449

                    Orbital Energies (a.u.)
 --------------------------------------------------------------

 Alpha MOs
 -- Occupied --
-14.344 -10.239 -10.228 -10.227 -10.224 -10.221 -10.202  -0.961
 -0.821  -0.757  -0.725  -0.609  -0.565  -0.554  -0.512  -0.489
 -0.454  -0.425  -0.404  -0.380  -0.355  -0.303  -0.270  -0.256
 -0.245

 Beta MOs
 -- Occupied --
-14.344 -10.239 -10.227 -10.226 -10.221 -10.212 -10.202  -0.961
 -0.815  -0.752  -0.715  -0.601  -0.564  -0.545  -0.509  -0.478
 -0.448  -0.423  -0.403  -0.375  -0.354  -0.298  -0.266  -0.250

          Ground-State Mulliken Net Atomic Charges

     Atom                 Charge (a.u.)    Spin (a.u.)
  --------------------------------------------------------
      1 C                    -0.152788      -0.026810
      2 C                    -0.054587      -0.000821
      3 C                    -0.081293       0.064779
      4 C                     0.009826      -0.327276
      5 C                    -0.119456       0.014221
      6 N                    -0.193969       0.006107
      7 H                     0.132567       0.000038
      8 H                     0.141066       0.000162
      9 H                     0.182891      -0.005275
     10 H                     0.141724       0.078084
     11 H                     0.135376      -0.000043
     12 C                    -0.296521       1.189322
     13 H                     0.155163       0.007514
  --------------------------------------------------------
  Sum of atomic charges =    -0.000000

                    Cartesian Multipole Moments
 -----------------------------------------------------------------
    Charge (ESU x 10^10)
                -0.0000
    Dipole Moment (Debye)
         X      -2.2543      Y      -1.4129      Z      -0.1334
       Tot       2.6638
    Quadrupole Moments (Debye-Ang)
        XX     -39.8182     XY      -5.2795     YY     -45.0063
        XZ       0.7209     YZ      -0.2089     ZZ     -41.5938

 Total job time:  4.46s(wall), 11.30s(cpu)
        *  Thank you very much for using Q-Chem.  Have a nice day.  *
