 Q-Chem 5.0, Q-Chem, Inc., Pleasanton, CA (2017)
 Q-Chem 5.0.2 for Intel X86 EM64T Linux

User input:
--------------------------------------------------------------
$molecule
0 2
C        2.0576312224    0.1537996266   -0.4196453412
C        1.0948059915   -0.7517514498   -0.1642955122
C       -0.2325411141   -0.0585007043   -0.3763933447
C       -1.0917457650   -0.1329045260    0.8641097506
C        0.2558146571    1.3294704712   -0.7377299563
N        1.5393921962    1.4348978743   -0.7765628750
H        3.1313966052    0.0158844098   -0.3922778985
H        1.2075625536   -1.7876564413    0.1255515569
H       -0.7577598552   -0.5024000024   -1.2415523619
H       -2.3367149418    0.1110515697    0.6436705906
H       -0.3974965784    2.1696810081   -0.9589864425
C       -2.0266083599   -1.0509199110    1.1594929901
H       -2.5664450319   -1.0149947903    2.1130289312
$end

$rem
method                b3lyp
basis                 6-31+g(d,p)
unrestricted          true
symmetry              off
sym_ignore            true
incdft                false
incfock               0
scf_convergence       8
thresh                14
jobtype               sp
scf_guess             core
scf_guess_mix         5
scf_algorithm         diis
max_scf_cycles        100
$end

--------------------------------------------------------------

             Standard Nuclear Orientation (Angstroms)
    I     Atom           X                Y                Z
 ----------------------------------------------------------------
    1      C       2.0576312224     0.1537996266    -0.4196453412
    2      C       1.0948059915    -0.7517514498    -0.1642955122
    3      C      -0.2325411141    -0.0585007043    -0.3763933447
    4      C      -1.0917457650    -0.1329045260     0.8641097506
    5      C       0.2558146571     1.3294704712    -0.7377299563
    6      N       1.5393921962     1.4348978743    -0.7765628750
    7      H       3.1313966052     0.0158844098    -0.3922778985
    8      H       1.2075625536    -1.7876564413     0.1255515569
    9      H      -0.7577598552    -0.5024000024    -1.2415523619
   10      H      -2.3367149418     0.1110515697     0.6436705906
   11      H      -0.3974965784     2.1696810081    -0.9589864425
   12      C      -2.0266083599    -1.0509199110     1.1594929901
   13      H      -2.5664450319    -1.0149947903     2.1130289312
 ----------------------------------------------------------------

   22    -286.7922229912      5.19E-09 Convergence criterion met
 Total energy in the final basis set = -286.79222299

                    Orbital Energies (a.u.)
 --------------------------------------------------------------

 Alpha MOs
 -- Occupied --
-14.350 -10.255 -10.245 -10.239 -10.237 -10.229 -10.213  -0.968
 -0.861  -0.781  -0.739  -0.610  -0.569  -0.554  -0.516  -0.491
 -0.436  -0.427  -0.406  -0.383  -0.371  -0.342  -0.283  -0.260
 -0.193

 Beta MOs
 -- Occupied --
-14.350 -10.248 -10.244 -10.236 -10.233 -10.229 -10.213  -0.968
 -0.849  -0.779  -0.737  -0.605  -0.569  -0.547  -0.510  -0.482
 -0.433  -0.423  -0.403  -0.381  -0.365  -0.302  -0.278  -0.259

          Ground-State Mulliken Net Atomic Charges

     Atom                 Charge (a.u.)    Spin (a.u.)
  --------------------------------------------------------
      1 C                    -0.124979      -0.026797
      2 C                    -0.059512      -0.004330
      3 C                     0.023557      -0.130648
      4 C                    -0.114107       0.565890
      5 C                     0.018872      -0.114493
      6 N                    -0.198455       0.010491
      7 H                     0.136793      -0.000070
      8 H                     0.148178      -0.000314
      9 H                     0.190973       0.029134
     10 H                     0.154160      -0.002381
     11 H                     0.139769      -0.000061
     12 C                    -0.483729       0.631997
     13 H                     0.168480       0.041581
  --------------------------------------------------------
  Sum of atomic charges =    -0.000000

                    Cartesian Multipole Moments
 -----------------------------------------------------------------
    Charge (ESU x 10^10)
                 0.0000
    Dipole Moment (Debye)
         X      -1.6263      Y      -0.9570      Z       0.0823
       Tot       1.8888
    Quadrupole Moments (Debye-Ang)
        XX     -40.2581     XY      -7.4781     YY     -46.8387
        XZ       0.4171     YZ      -0.2409     ZZ     -43.4155

 Total job time:  29.95s(wall), 107.44s(cpu)
        *  Thank you very much for using Q-Chem.  Have a nice day.  *
