 Q-Chem 5.0, Q-Chem, Inc., Pleasanton, CA (2017)
 Q-Chem 5.0.2 for Intel X86 EM64T Linux

User input:
--------------------------------------------------------------
$molecule
0 2
C        2.1533176575    0.1311404754   -0.5078366295
C        1.1925506902   -0.7707807381   -0.2348762653
C       -0.1313267574   -0.0406358125   -0.2805650748
C       -1.0010926800   -0.1628219816    0.9066809235
C        0.3623276949    1.3687209901   -0.5771414198
N        1.6390010530    1.4462500607   -0.7210612340
H        3.2220471705   -0.0268372223   -0.5821554876
H        1.3054908269   -1.8266935534   -0.0285788128
H       -0.7061929189   -0.3799946169   -1.1687705911
H       -2.9117112541   -0.9182168525    0.4407252299
H       -0.2912920279    2.2306536390   -0.6784167266
C       -2.2239039125   -0.5434790474    1.2076132923
H       -2.6092155420   -0.5073053405    2.2243827960
$end

$rem
method                b3lyp
basis                 6-31+g(d,p)
unrestricted          true
symmetry              off
sym_ignore            true
incdft                false
incfock               0
scf_convergence       6
thresh                14
jobtype               sp
scf_guess             read
scf_algorithm         diis
max_scf_cycles        100
stability_analysis    true
max_cis_cycles        100
cis_n_roots           4
$end

--------------------------------------------------------------

             Standard Nuclear Orientation (Angstroms)
    I     Atom           X                Y                Z
 ----------------------------------------------------------------
    1      C       2.1533176575     0.1311404754    -0.5078366295
    2      C       1.1925506902    -0.7707807381    -0.2348762653
    3      C      -0.1313267574    -0.0406358125    -0.2805650748
    4      C      -1.0010926800    -0.1628219816     0.9066809235
    5      C       0.3623276949     1.3687209901    -0.5771414198
    6      N       1.6390010530     1.4462500607    -0.7210612340
    7      H       3.2220471705    -0.0268372223    -0.5821554876
    8      H       1.3054908269    -1.8266935534    -0.0285788128
    9      H      -0.7061929189    -0.3799946169    -1.1687705911
   10      H      -2.9117112541    -0.9182168525     0.4407252299
   11      H      -0.2912920279     2.2306536390    -0.6784167266
   12      C      -2.2239039125    -0.5434790474     1.2076132923
   13      H      -2.6092155420    -0.5073053405     2.2243827960
 ----------------------------------------------------------------

    2    -286.8761179874      1.45E-09 Convergence criterion met
 Total energy in the final basis set = -286.87611799

         TDDFT/TDA Excitation Energies
 ---------------------------------------------------

 Excited state   1: excitation energy (eV) =    3.1237
 Total energy for state  1:                  -286.76132584 au
    <S**2>     :  0.7751
    Trans. Mom.: -0.0206 X   0.1202 Y  -0.0387 Z
    Strength   :     0.0012526945
    S(  1) --> V(  2) amplitude = -0.1513 alpha
    D( 22) --> S(  1) amplitude =  0.3899 beta
    D( 23) --> S(  1) amplitude = -0.5247 beta
    D( 24) --> S(  1) amplitude =  0.7286 beta

 Excited state   2: excitation energy (eV) =    3.1849
 Total energy for state  2:                  -286.75907485 au
    <S**2>     :  2.7468
    Trans. Mom.: -0.0076 X  -0.0154 Y   0.0067 Z
    Strength   :     0.0000264817
    D( 23) --> V(  1) amplitude =  0.1521 alpha
    D( 24) --> V(  1) amplitude =  0.6617 alpha
    S(  1) --> V(  1) amplitude =  0.1649 alpha
    D( 23) --> V(  1) amplitude = -0.1883 beta
    D( 24) --> V(  1) amplitude = -0.6479 beta

 Excited state   3: excitation energy (eV) =    3.7038
 Total energy for state  3:                  -286.74000735 au
    <S**2>     :  0.7962
    Trans. Mom.:  0.0437 X  -0.0690 Y   0.0154 Z
    Strength   :     0.0006271810
    S(  1) --> V(  2) amplitude =  0.1675 alpha
    D( 22) --> S(  1) amplitude = -0.2878 beta
    D( 23) --> S(  1) amplitude =  0.6570 beta
    D( 24) --> S(  1) amplitude =  0.6701 beta

 Excited state   4: excitation energy (eV) =    3.8546
 Total energy for state  4:                  -286.73446306 au
    <S**2>     :  1.0233
    Trans. Mom.: -0.1379 X  -0.0574 Y   0.0439 Z
    Strength   :     0.0022902241
    D( 23) --> V(  1) amplitude = -0.2179 alpha
    S(  1) --> V(  1) amplitude =  0.9398 alpha

 ---------------------------------------------------

                    Orbital Energies (a.u.)
 --------------------------------------------------------------

 Alpha MOs
 -- Occupied --
-14.350 -10.245 -10.238 -10.235 -10.227 -10.210 -10.206  -0.967
 -0.824  -0.764  -0.731  -0.612  -0.566  -0.556  -0.518  -0.478
 -0.459  -0.427  -0.410  -0.396  -0.367  -0.302  -0.275  -0.255
 -0.238

 Beta MOs
 -- Occupied --
-14.350 -10.245 -10.237 -10.227 -10.220 -10.209 -10.207  -0.967
 -0.811  -0.759  -0.728  -0.607  -0.566  -0.546  -0.508  -0.469
 -0.447  -0.424  -0.408  -0.392  -0.363  -0.297  -0.273  -0.254

          Ground-State Mulliken Net Atomic Charges

     Atom                 Charge (a.u.)    Spin (a.u.)
  --------------------------------------------------------
      1 C                    -0.175702      -0.006843
      2 C                     0.033243      -0.009303
      3 C                    -0.283854       0.071222
      4 C                     0.042188       0.937562
      5 C                     0.032321      -0.039367
      6 N                    -0.189322       0.004912
      7 H                     0.136085       0.000445
      8 H                     0.143178      -0.000410
      9 H                     0.187283       0.058662
     10 H                     0.144639       0.084294
     11 H                     0.143637      -0.000092
     12 C                    -0.369581      -0.139895
     13 H                     0.155887       0.038814
  --------------------------------------------------------
  Sum of atomic charges =    -0.000000

                    Cartesian Multipole Moments
 -----------------------------------------------------------------
    Charge (ESU x 10^10)
                 0.0000
    Dipole Moment (Debye)
         X      -1.6784      Y      -1.7633      Z      -0.3124
       Tot       2.4543
    Quadrupole Moments (Debye-Ang)
        XX     -40.2220     XY      -4.2761     YY     -44.5046
        XZ       1.1748     YZ       1.1934     ZZ     -43.3899

 Total job time:  195.47s(wall), 190.98s(cpu)
        *  Thank you very much for using Q-Chem.  Have a nice day.  *
