 Q-Chem 5.0, Q-Chem, Inc., Pleasanton, CA (2017)
 Q-Chem 5.0.2 for Intel X86 EM64T Linux

User input:
--------------------------------------------------------------
$molecule
0 2
C        1.8970056623    0.2742610703   -0.5364035172
C        1.2458409324   -0.9631508897   -0.6350018280
C       -0.0764983023   -1.0596755593   -0.2375098126
C       -0.7456330571    0.0937300068    0.2603660867
C        0.0333327482    1.2909937607    0.3090612768
N        1.3002908388    1.3867855736   -0.0707365890
H        2.9362210123    0.3798253822   -0.8410165470
H        1.7783723219   -1.8287824333   -1.0188556987
H       -0.6112778682   -2.0043046847   -0.3003684520
H       -2.6782168685   -0.8299435387    0.6478908783
H       -0.4302757675    2.2043270747    0.6828075288
C       -2.0853847109    0.0783699090    0.6827915316
H       -2.5637769418    0.9775643289    1.0569751417
****
C        1.9521680423    0.1415624190   -0.2165775774
C        0.9824069402   -0.7884863431   -0.2052207760
C       -0.3095071169   -0.0909620511   -0.5378194683
C       -1.4477360574   -0.2372190589    0.4564625780
C        0.1971883954    1.3340539333   -0.6796587971
N        1.4672976553    1.4539005003   -0.5096382726
H        3.0127502118    0.0124296208   -0.0338126576
H        1.0771101418   -1.8479025222   -0.0056636540
H       -0.6756249420   -0.4156622715   -1.5290078083
H       -2.3776925346    0.2749922901    0.1762128959
H       -0.4358786103    2.1877578113   -0.9130787340
C       -1.3875354219   -0.9016181311    1.5873188373
H       -2.0549467036   -1.1228461971    2.4104834341
$end

$rem
method                b3lyp
basis                 6-31g(d)
unrestricted          true
symmetry              off
sym_ignore            true
incdft                false
incfock               0
scf_convergence       8
thresh                14
jobtype               fsm
scf_guess             core
scf_guess_mix         5
scf_algorithm         diis
max_scf_cycles        100
fsm_nnode             21
fsm_ngrad             6
fsm_mode              2
fsm_opt_mode          2
$end

--------------------------------------------------------------

   21    -286.9514929296      3.84E-09 Convergence criterion met
 Total energy in the final basis set = -286.95149293
   22    -286.8443461614      5.45E-09 Convergence criterion met
 Total energy in the final basis set = -286.84434616
   21    -286.9462507426      6.89E-09 Convergence criterion met
 Total energy in the final basis set = -286.94625074
   21    -286.9487716558      3.99E-09 Convergence criterion met
 Total energy in the final basis set = -286.94877166
   23    -286.8372654559      6.33E-09 Convergence criterion met
 Total energy in the final basis set = -286.83726546
   22    -286.8412301255      7.57E-09 Convergence criterion met
 Total energy in the final basis set = -286.84123013
   21    -286.9406043408      4.16E-09 Convergence criterion met
 Total energy in the final basis set = -286.94060434
   21    -286.9440502707      5.54E-09 Convergence criterion met
 Total energy in the final basis set = -286.65830682
   26    -286.6572137607      5.20E-09 Convergence criterion met
 Total energy in the final basis set = -286.65721376
   26    -286.6584262159      3.97E-09 Convergence criterion met
 Total energy in the final basis set = -286.65842622
   30    -286.6571631304      5.97E-09 Convergence criterion met
 Total energy in the final basis set = -286.65716313
   26    -286.6585717363      3.89E-09 Convergence criterion met
 Total energy in the final basis set = -286.65857174
   25    -286.6570720727      9.06E-09 Convergence criterion met
 Total energy in the final basis set = -286.65707207
   25    -286.6587193558      8.27E-09 Convergence criterion met
 Total energy in the final basis set = -286.65871936
   31    -286.6569811768      4.33E-09 Convergence criterion met
 Total energy in the final basis set = -286.65698118

                    Orbital Energies (a.u.)
 --------------------------------------------------------------

 Alpha MOs
 -- Occupied --
-14.337 -10.259 -10.250 -10.233 -10.229 -10.209 -10.193  -0.945
 -0.833  -0.766  -0.715  -0.615  -0.574  -0.519  -0.514  -0.454
 -0.445  -0.421  -0.386  -0.370  -0.358  -0.303  -0.249  -0.227
 -0.151

 Beta MOs
 -- Occupied --
-14.335 -10.256 -10.250 -10.228 -10.226 -10.209 -10.192  -0.941
 -0.822  -0.761  -0.709  -0.610  -0.568  -0.513  -0.507  -0.450
 -0.440  -0.414  -0.380  -0.364  -0.344  -0.293  -0.235  -0.220

          Ground-State Mulliken Net Atomic Charges

     Atom                 Charge (a.u.)    Spin (a.u.)
  --------------------------------------------------------
      1 C                     0.017772      -0.018520
      2 C                    -0.118122       0.087801
      3 C                    -0.212636       0.098457
      4 C                    -0.049895       0.185221
      5 C                    -0.003267       0.014157
      6 N                    -0.339675       0.100396
      7 H                     0.141815      -0.000081
      8 H                     0.147623       0.003702
      9 H                     0.160996       0.030812
     10 H                     0.118571       0.138395
     11 H                     0.179715       0.005450
     12 C                    -0.221833       0.337008
     13 H                     0.178934       0.017202
  --------------------------------------------------------
  Sum of atomic charges =    -0.000000

                    Cartesian Multipole Moments
 -----------------------------------------------------------------
    Charge (ESU x 10^10)
                -0.0000
    Dipole Moment (Debye)
         X      -1.9659      Y      -0.8564      Z      -0.2080
       Tot       2.1544
    Quadrupole Moments (Debye-Ang)
        XX     -36.2744     XY      -4.6444     YY     -43.1187
        XZ      -1.0360     YZ       3.6009     ZZ     -42.9799

             Standard Nuclear Orientation (Angstroms)
    I     Atom           X                Y                Z
 ----------------------------------------------------------------
    1      C       1.9937342884     0.1985923771    -0.3003433535
    2      C       1.1947837858    -0.8935734369    -0.4464968745
    3      C      -0.2142280556    -0.5668360172    -0.6115426285
    4      C      -1.1609038020    -0.0835125542     0.3993665766
    5      C       0.0591559468     1.3066691356    -0.3228135891
    6      N       1.3356760192     1.4060957710    -0.2120948043
    7      H       3.0771242776     0.1980426309    -0.3101085985
    8      H       1.5774755554    -1.8910150884    -0.6436702143
    9      H      -0.7442830671    -1.2044328569    -1.3397589336
   10      H      -2.4226264002    -0.4420246537     0.1327280954
   11      H      -0.5958851144     2.1604291435    -0.1557178084
   12      C      -1.7511287335    -0.4290825293     1.5366817919
   13      H      -2.4716031207     0.1563052156     2.1121804281
 ----------------------------------------------------------------

 Total job time:  1381.59s(wall), 4737.53s(cpu)
        *  Thank you very much for using Q-Chem.  Have a nice day.  *
