 Q-Chem 5.0, Q-Chem, Inc., Pleasanton, CA (2017)
 Q-Chem 5.0.2 for Intel X86 EM64T Linux

User input:
--------------------------------------------------------------
$molecule
0 2
C        2.1532114983    0.1641216733   -0.4955844477
C        1.2412053834   -0.7982631086   -0.2672533817
C       -0.1231987229   -0.1443270860   -0.3252197728
C       -0.9796490493   -0.3369158035    0.8646278935
C        0.2947081074    1.2958148998   -0.5914164750
N        1.5672757208    1.4498951842   -0.7032727061
H        3.2314971948    0.0725197678   -0.5353520671
H        1.4116496987   -1.8476538945   -0.0678806141
H       -0.6691549925   -0.5033960397   -1.2219373256
H       -3.0482491062   -0.4625691461    0.4530047150
H       -0.4070454763    2.1176803734   -0.7020869374
C       -2.2436721527   -0.4781124842    1.1981127357
H       -2.5512865215   -0.6131371958    2.2326684690
$end

$rem
method                b3lyp
basis                 6-31+g(d,p)
unrestricted          true
symmetry              off
sym_ignore            true
incdft                false
incfock               0
scf_convergence       8
thresh                14
jobtype               opt
scf_guess             read
scf_algorithm         diis
max_scf_cycles        100
geom_opt_max_cycles   300
$end

--------------------------------------------------------------

   19    -286.8753257787      9.39E-09 Convergence criterion met
 Total energy in the final basis set = -286.87532578
   13    -286.8756478662      8.06E-09 Convergence criterion met
 Total energy in the final basis set = -286.87564787
   14    -286.8759640563      9.98E-09 Convergence criterion met
 Total energy in the final basis set = -286.87596406
   13    -286.8760304840      5.10E-09 Convergence criterion met
 Total energy in the final basis set = -286.87603048
   13    -286.8760921896      1.98E-09 Convergence criterion met
 Total energy in the final basis set = -286.87609219
   12    -286.8761103867      4.71E-09 Convergence criterion met
 Total energy in the final basis set = -286.87611039
   11    -286.8761172375      9.97E-09 Convergence criterion met
 Total energy in the final basis set = -286.87611724

             Standard Nuclear Orientation (Angstroms)
    I     Atom           X                Y                Z
 ----------------------------------------------------------------
    1      C       2.1438785484     0.1246525631    -0.5202666229
    2      C       1.1831115811    -0.7772686504    -0.2473062587
    3      C      -0.1407658665    -0.0471237248    -0.2929950682
    4      C      -1.0105317891    -0.1693098939     0.8942509301
    5      C       0.3528885858     1.3622330778    -0.5895714132
    6      N       1.6295619439     1.4397621484    -0.7334912274
    7      H       3.2126080614    -0.0333251346    -0.5945854810
    8      H       1.2960517178    -1.8331814657    -0.0410088062
    9      H      -0.7156320280    -0.3864825292    -1.1812005845
   10      H      -2.9211503632    -0.9247047648     0.4282952365
   11      H      -0.3007311370     2.2241657267    -0.6908467200
   12      C      -2.2333430216    -0.5499669597     1.1951832989
   13      H      -2.6186546511    -0.5137932528     2.2119528026
 ----------------------------------------------------------------

   10    -286.8761179876      7.00E-09 Convergence criterion met
 Total energy in the final basis set = -286.87611799
 Final energy is   -286.876117987647
 **  OPTIMIZATION CONVERGED  **

                    Orbital Energies (a.u.)
 --------------------------------------------------------------

 Alpha MOs
 -- Occupied --
-14.350 -10.245 -10.238 -10.235 -10.227 -10.210 -10.206  -0.967
 -0.824  -0.764  -0.731  -0.612  -0.566  -0.556  -0.518  -0.478
 -0.459  -0.427  -0.410  -0.396  -0.367  -0.302  -0.275  -0.255
 -0.238

 Beta MOs
 -- Occupied --
-14.350 -10.245 -10.237 -10.227 -10.220 -10.209 -10.207  -0.967
 -0.811  -0.759  -0.728  -0.607  -0.566  -0.546  -0.508  -0.469
 -0.447  -0.424  -0.408  -0.392  -0.363  -0.297  -0.273  -0.254

          Ground-State Mulliken Net Atomic Charges

     Atom                 Charge (a.u.)    Spin (a.u.)
  --------------------------------------------------------
      1 C                    -0.175702      -0.006891
      2 C                     0.033243      -0.009246
      3 C                    -0.283854       0.071219
      4 C                     0.042188       0.937562
      5 C                     0.032321      -0.039412
      6 N                    -0.189322       0.004946
      7 H                     0.136085       0.000448
      8 H                     0.143178      -0.000414
      9 H                     0.187283       0.058663
     10 H                     0.144639       0.084294
     11 H                     0.143636      -0.000088
     12 C                    -0.369581      -0.139895
     13 H                     0.155887       0.038814
  --------------------------------------------------------
  Sum of atomic charges =     0.000000

                    Cartesian Multipole Moments
 -----------------------------------------------------------------
    Charge (ESU x 10^10)
                 0.0000
    Dipole Moment (Debye)
         X      -1.6784      Y      -1.7633      Z      -0.3124
       Tot       2.4543
    Quadrupole Moments (Debye-Ang)
        XX     -40.1903     XY      -4.2486     YY     -44.4818
        XZ       1.1986     YZ       1.2173     ZZ     -43.3822

 Total job time:  189.98s(wall), 634.53s(cpu)
        *  Thank you very much for using Q-Chem.  Have a nice day.  *
