 Q-Chem 5.0, Q-Chem, Inc., Pleasanton, CA (2017)
 Q-Chem 5.0.2 for Intel X86 EM64T Linux

User input:
--------------------------------------------------------------
$molecule
0 2
C        1.9889755599    0.1125961065   -0.3383406359
C        0.9993217888   -0.7812140752   -0.1485311707
C       -0.2964986879   -0.0720986076   -0.4421298297
C       -1.4389611254   -0.1559848067    0.5538868931
C        0.2226245831    1.3223725447   -0.7245813757
N        1.5079087602    1.4095497389   -0.6933309052
H        3.0584302058   -0.0374898513   -0.2562299310
H        1.0922762919   -1.8222736661    0.1301110062
H       -0.6840138864   -0.4489627116   -1.4087805383
H       -2.2006176738    0.6277108428    0.4485555384
H       -0.4082211188    2.1738449019   -0.9695309646
C       -1.6117315041   -1.0825903825    1.4690689028
H       -2.3522016092   -1.3298028947    2.2182430979
$end

$rem
method                b3lyp
basis                 6-31+g(d,p)
unrestricted          true
symmetry              off
sym_ignore            true
incdft                false
incfock               0
scf_convergence       8
thresh                14
jobtype               opt
scf_guess             read
scf_algorithm         diis
max_scf_cycles        100
geom_opt_max_cycles   300
$end

--------------------------------------------------------------

   19    -286.8679508696      8.45E-09 Convergence criterion met
 Total energy in the final basis set = -286.86795087
   14    -286.8683337365      4.41E-09 Convergence criterion met
 Total energy in the final basis set = -286.86833374
   14    -286.8687322349      2.61E-09 Convergence criterion met
 Total energy in the final basis set = -286.86873223
   13    -286.8689553306      9.37E-09 Convergence criterion met
 Total energy in the final basis set = -286.86895533
   13    -286.8689960751      9.70E-09 Convergence criterion met
 Total energy in the final basis set = -286.86899608
   12    -286.8690068062      5.81E-09 Convergence criterion met
 Total energy in the final basis set = -286.86900681
   11    -286.8690085276      6.80E-09 Convergence criterion met
 Total energy in the final basis set = -286.86900853

             Standard Nuclear Orientation (Angstroms)
    I     Atom           X                Y                Z
 ----------------------------------------------------------------
    1      C       1.9526813205     0.0814417641    -0.2608351754
    2      C       0.9515360637    -0.8180273539    -0.2322991616
    3      C      -0.3229614048    -0.0764127848    -0.5346421972
    4      C      -1.4607533946    -0.2029258298     0.4618773852
    5      C       0.2212338416     1.3343995351    -0.6731845684
    6      N       1.4999099402     1.4088757181    -0.5326576758
    7      H       3.0115764164    -0.0832855199    -0.1046044737
    8      H       1.0197574174    -1.8811095004    -0.0437572345
    9      H      -0.7042807070    -0.3785028153    -1.5272104269
   10      H      -2.3690700024     0.3580628236     0.2062913921
   11      H      -0.3877005330     2.2101079099    -0.8843896505
   12      C      -1.4336836810    -0.9081938007     1.5707859339
   13      H      -2.1009536929    -1.1287730070     2.3930359402
 ----------------------------------------------------------------

   10    -286.8690089274      4.78E-09 Convergence criterion met
 Total energy in the final basis set = -286.86900893
 Final energy is   -286.869008927369
 **  OPTIMIZATION CONVERGED  **

                    Orbital Energies (a.u.)
 --------------------------------------------------------------

 Alpha MOs
 -- Occupied --
-14.344 -10.239 -10.228 -10.227 -10.224 -10.221 -10.202  -0.961
 -0.821  -0.757  -0.725  -0.609  -0.565  -0.554  -0.512  -0.489
 -0.454  -0.425  -0.404  -0.380  -0.355  -0.303  -0.270  -0.256
 -0.245

 Beta MOs
 -- Occupied --
-14.344 -10.239 -10.227 -10.226 -10.221 -10.212 -10.202  -0.961
 -0.815  -0.752  -0.715  -0.601  -0.564  -0.545  -0.509  -0.478
 -0.448  -0.423  -0.403  -0.375  -0.354  -0.298  -0.266  -0.250

          Ground-State Mulliken Net Atomic Charges

     Atom                 Charge (a.u.)    Spin (a.u.)
  --------------------------------------------------------
      1 C                    -0.152640      -0.026590
      2 C                    -0.054860      -0.001043
      3 C                    -0.079681       0.064267
      4 C                     0.008737      -0.326632
      5 C                    -0.120227       0.014171
      6 N                    -0.193838       0.006082
      7 H                     0.132561       0.000035
      8 H                     0.141038       0.000167
      9 H                     0.182901      -0.005269
     10 H                     0.141722       0.078119
     11 H                     0.135382      -0.000047
     12 C                    -0.296231       1.189191
     13 H                     0.155138       0.007547
  --------------------------------------------------------
  Sum of atomic charges =     0.000000

                    Cartesian Multipole Moments
 -----------------------------------------------------------------
    Charge (ESU x 10^10)
                -0.0000
    Dipole Moment (Debye)
         X      -2.2910      Y      -1.3403      Z      -0.1964
       Tot       2.6615
    Quadrupole Moments (Debye-Ang)
        XX     -40.0587     XY      -5.4212     YY     -44.6702
        XZ       0.4358     YZ      -0.3478     ZZ     -41.6265

 Total job time:  176.58s(wall), 650.39s(cpu)
        *  Thank you very much for using Q-Chem.  Have a nice day.  *
