 Q-Chem 5.0, Q-Chem, Inc., Pleasanton, CA (2017)
 Q-Chem 5.0.2 for Intel X86 EM64T Linux

User input:
--------------------------------------------------------------
$molecule
0 2
C        1.9520930701    0.1417560943   -0.2160873481
C        0.9823690900   -0.7882895006   -0.2046201354
C       -0.3098947815   -0.0909953903   -0.5382013100
C       -1.4479077129   -0.2383205515    0.4563373940
C        0.1970923532    1.3341743801   -0.6791093460
N        1.4670966099    1.4537174408   -0.5083058303
H        3.0128296271    0.0119277222   -0.0348449570
H        1.0787567367   -1.8484835737   -0.0097138518
H       -0.6741993271   -0.4167486934   -1.5294949013
H       -2.3782942661    0.2727043552    0.1752409552
H       -0.4357968973    2.1881709586   -0.9119203221
C       -1.3876637618   -0.8985148172    1.5895185539
H       -2.0564807402   -1.1210984246    2.4112010989
$end

$rem
method                b3lyp
basis                 6-31g(d)
unrestricted          true
symmetry              off
sym_ignore            true
incdft                false
incfock               0
scf_convergence       8
thresh                14
jobtype               opt
scf_guess             core
scf_guess_mix         5
scf_algorithm         diis
max_scf_cycles        100
geom_opt_max_cycles   300
$end

--------------------------------------------------------------

   22    -286.8443435614      5.46E-09 Convergence criterion met
 Total energy in the final basis set = -286.84434356
   17    -286.8443454885      3.22E-09 Convergence criterion met
 Total energy in the final basis set = -286.84434549

             Standard Nuclear Orientation (Angstroms)
    I     Atom           X                Y                Z
 ----------------------------------------------------------------
    1      C       1.9521680423     0.1415624190    -0.2165775774
    2      C       0.9824069402    -0.7884863431    -0.2052207760
    3      C      -0.3095071169    -0.0909620511    -0.5378194683
    4      C      -1.4477360574    -0.2372190589     0.4564625780
    5      C       0.1971883954     1.3340539333    -0.6796587971
    6      N       1.4672976553     1.4539005003    -0.5096382726
    7      H       3.0127502118     0.0124296208    -0.0338126576
    8      H       1.0771101418    -1.8479025222    -0.0056636540
    9      H      -0.6756249420    -0.4156622715    -1.5290078083
   10      H      -2.3776925346     0.2749922901     0.1762128959
   11      H      -0.4358786103     2.1877578113    -0.9130787340
   12      C      -1.3875354219    -0.9016181311     1.5873188373
   13      H      -2.0549467036    -1.1228461971     2.4104834341
 ----------------------------------------------------------------

   17    -286.8443459340      3.25E-09 Convergence criterion met
 Total energy in the final basis set = -286.84434593
 Final energy is   -286.844345934001
 **  OPTIMIZATION CONVERGED  **

                    Orbital Energies (a.u.)
 --------------------------------------------------------------

 Alpha MOs
 -- Occupied --
-14.329 -10.228 -10.216 -10.213 -10.210 -10.209 -10.190  -0.948
 -0.809  -0.745  -0.713  -0.598  -0.555  -0.544  -0.502  -0.479
 -0.442  -0.414  -0.393  -0.369  -0.344  -0.290  -0.257  -0.245
 -0.234

 Beta MOs
 -- Occupied --
-14.329 -10.228 -10.215 -10.212 -10.209 -10.198 -10.190  -0.948
 -0.803  -0.741  -0.703  -0.590  -0.554  -0.534  -0.500  -0.469
 -0.436  -0.412  -0.393  -0.364  -0.342  -0.285  -0.252  -0.238

          Ground-State Mulliken Net Atomic Charges

     Atom                 Charge (a.u.)    Spin (a.u.)
  --------------------------------------------------------
      1 C                     0.007916       0.001221
      2 C                    -0.123147       0.002691
      3 C                    -0.228146       0.042995
      4 C                    -0.119106      -0.167633
      5 C                     0.085390      -0.006779
      6 N                    -0.370680       0.006819
      7 H                     0.141647      -0.000007
      8 H                     0.147067       0.000263
      9 H                     0.180635      -0.004679
     10 H                     0.149430       0.078381
     11 H                     0.145840      -0.000023
     12 C                    -0.181968       1.042926
     13 H                     0.165122       0.003824
  --------------------------------------------------------
  Sum of atomic charges =    -0.000000

                    Cartesian Multipole Moments
 -----------------------------------------------------------------
    Charge (ESU x 10^10)
                 0.0000
    Dipole Moment (Debye)
         X      -2.0582      Y      -1.3613      Z      -0.1977
       Tot       2.4756
    Quadrupole Moments (Debye-Ang)
        XX     -38.5136     XY      -4.7469     YY     -43.1727
        XZ       0.4342     YZ      -0.3950     ZZ     -39.9674

 Total job time:  48.70s(wall), 159.56s(cpu)
        *  Thank you very much for using Q-Chem.  Have a nice day.  *
