 Q-Chem 5.0, Q-Chem, Inc., Pleasanton, CA (2017)
 Q-Chem 5.0.2 for Intel X86 EM64T Linux

User input:
--------------------------------------------------------------
$molecule
0 2
C        1.8971984251    0.2740493145   -0.5361073664
C        1.2459137076   -0.9632674531   -0.6346891543
C       -0.0765072699   -1.0594478029   -0.2370396338
C       -0.7452312499    0.0937983533    0.2616426217
C        0.0336572926    1.2908312153    0.3095847326
N        1.3003488156    1.3867016300   -0.0709268702
H        2.9362621726    0.3797410279   -0.8412012353
H        1.7780705961   -1.8285668725   -1.0197773807
H       -0.6116480665   -2.0038752071   -0.2999359895
H       -2.6774642220   -0.8299070082    0.6468948197
H       -0.4300831383    2.2048005250    0.6816333215
C       -2.0859487614    0.0782627683    0.6823172581
H       -2.5645683021    0.9768795099    1.0576048761
$end

$rem
method                b3lyp
basis                 6-31g(d)
unrestricted          true
symmetry              off
sym_ignore            true
incdft                false
incfock               0
scf_convergence       8
thresh                14
jobtype               opt
scf_guess             core
scf_guess_mix         5
scf_algorithm         diis
max_scf_cycles        100
geom_opt_max_cycles   300
$end

--------------------------------------------------------------

   21    -286.9514917220      3.91E-09 Convergence criterion met
 Total energy in the final basis set = -286.95149172
   16    -286.9514928389      8.61E-09 Convergence criterion met
 Total energy in the final basis set = -286.95149284

             Standard Nuclear Orientation (Angstroms)
    I     Atom           X                Y                Z
 ----------------------------------------------------------------
    1      C       1.8970056623     0.2742610703    -0.5364035172
    2      C       1.2458409324    -0.9631508897    -0.6350018280
    3      C      -0.0764983023    -1.0596755593    -0.2375098126
    4      C      -0.7456330571     0.0937300068     0.2603660867
    5      C       0.0333327482     1.2909937607     0.3090612768
    6      N       1.3002908388     1.3867855736    -0.0707365890
    7      H       2.9362210123     0.3798253822    -0.8410165470
    8      H       1.7783723219    -1.8287824333    -1.0188556987
    9      H      -0.6112778682    -2.0043046847    -0.3003684520
   10      H      -2.6782168685    -0.8299435387     0.6478908783
   11      H      -0.4302757675     2.2043270747     0.6828075288
   12      C      -2.0853847109     0.0783699090     0.6827915316
   13      H      -2.5637769418     0.9775643289     1.0569751417
 ----------------------------------------------------------------

   16    -286.9514929296      8.56E-09 Convergence criterion met
 Total energy in the final basis set = -286.95149293
 Final energy is   -286.951492929644
 **  OPTIMIZATION CONVERGED  **

                    Orbital Energies (a.u.)
 --------------------------------------------------------------

 Alpha MOs
 -- Occupied --
-14.330 -10.226 -10.224 -10.210 -10.208 -10.203 -10.200  -0.940
 -0.818  -0.778  -0.695  -0.631  -0.601  -0.521  -0.493  -0.468
 -0.425  -0.415  -0.403  -0.401  -0.367  -0.315  -0.283  -0.252
 -0.193

 Beta MOs
 -- Occupied --
-14.332 -10.223 -10.220 -10.211 -10.206 -10.201 -10.193  -0.939
 -0.813  -0.772  -0.677  -0.627  -0.595  -0.517  -0.491  -0.465
 -0.422  -0.410  -0.399  -0.394  -0.365  -0.295  -0.270  -0.254

          Ground-State Mulliken Net Atomic Charges

     Atom                 Charge (a.u.)    Spin (a.u.)
  --------------------------------------------------------
      1 C                     0.030547       0.269884
      2 C                    -0.134458      -0.134681
      3 C                    -0.156717       0.246958
      4 C                     0.209043      -0.200658
      5 C                    -0.008621       0.242223
      6 N                    -0.402118      -0.110317
      7 H                     0.143453      -0.014115
      8 H                     0.138687       0.005314
      9 H                     0.139954      -0.011459
     10 H                     0.152021      -0.038414
     11 H                     0.140211      -0.012057
     12 C                    -0.407252       0.795556
     13 H                     0.155252      -0.038235
  --------------------------------------------------------
  Sum of atomic charges =    -0.000000

                    Cartesian Multipole Moments
 -----------------------------------------------------------------
    Charge (ESU x 10^10)
                 0.0000
    Dipole Moment (Debye)
         X      -1.0904      Y      -1.8223      Z      -0.1033
       Tot       2.1261
    Quadrupole Moments (Debye-Ang)
        XX     -38.1819     XY      -3.5459     YY     -40.5165
        XZ      -2.5202     YZ       1.8239     ZZ     -42.0816

 Total job time:  48.05s(wall), 153.96s(cpu)
        *  Thank you very much for using Q-Chem.  Have a nice day.  *
