 Q-Chem 5.0, Q-Chem, Inc., Pleasanton, CA (2017)
 Q-Chem 5.0.2 for Intel X86 EM64T Linux

User input:
--------------------------------------------------------------
$molecule
0 2
C        1.9937342884    0.1985923771   -0.3003433535
C        1.1947837858   -0.8935734369   -0.4464968745
C       -0.2142280556   -0.5668360172   -0.6115426285
C       -1.1609038020   -0.0835125542    0.3993665766
C        0.0591559468    1.3066691356   -0.3228135891
N        1.3356760192    1.4060957710   -0.2120948043
H        3.0771242776    0.1980426309   -0.3101085985
H        1.5774755554   -1.8910150884   -0.6436702143
H       -0.7442830671   -1.2044328569   -1.3397589336
H       -2.4226264002   -0.4420246537    0.1327280954
H       -0.5958851144    2.1604291435   -0.1557178084
C       -1.7511287335   -0.4290825293    1.5366817919
H       -2.4716031207    0.1563052156    2.1121804281
$end

$rem
method                b3lyp
basis                 6-31g(d)
unrestricted          true
symmetry              off
sym_ignore            true
incdft                false
incfock               0
scf_convergence       8
thresh                14
jobtype               freq
scf_guess             read
scf_algorithm         diis
max_scf_cycles        100
$end

--------------------------------------------------------------

             Standard Nuclear Orientation (Angstroms)
    I     Atom           X                Y                Z
 ----------------------------------------------------------------
    1      C       1.9937342884     0.1985923771    -0.3003433535
    2      C       1.1947837858    -0.8935734369    -0.4464968745
    3      C      -0.2142280556    -0.5668360172    -0.6115426285
    4      C      -1.1609038020    -0.0835125542     0.3993665766
    5      C       0.0591559468     1.3066691356    -0.3228135891
    6      N       1.3356760192     1.4060957710    -0.2120948043
    7      H       3.0771242776     0.1980426309    -0.3101085985
    8      H       1.5774755554    -1.8910150884    -0.6436702143
    9      H      -0.7442830671    -1.2044328569    -1.3397589336
   10      H      -2.4226264002    -0.4420246537     0.1327280954
   11      H      -0.5958851144     2.1604291435    -0.1557178084
   12      C      -1.7511287335    -0.4290825293     1.5366817919
   13      H      -2.4716031207     0.1563052156     2.1121804281
 ----------------------------------------------------------------

    2    -286.6721528632      1.16E-09 Convergence criterion met
 Total energy in the final basis set = -286.67215286

                    Orbital Energies (a.u.)
 --------------------------------------------------------------

 Alpha MOs
 -- Occupied --
-14.337 -10.252 -10.249 -10.231 -10.224 -10.212 -10.194  -0.948
 -0.833  -0.767  -0.717  -0.615  -0.574  -0.518  -0.512  -0.454
 -0.446  -0.423  -0.388  -0.372  -0.359  -0.303  -0.250  -0.232
 -0.151

 Beta MOs
 -- Occupied --
-14.335 -10.253 -10.245 -10.229 -10.217 -10.212 -10.193  -0.945
 -0.822  -0.762  -0.711  -0.610  -0.569  -0.516  -0.502  -0.451
 -0.441  -0.416  -0.382  -0.365  -0.346  -0.291  -0.235  -0.225

          Ground-State Mulliken Net Atomic Charges

     Atom                 Charge (a.u.)    Spin (a.u.)
  --------------------------------------------------------
      1 C                     0.017682      -0.033757
      2 C                    -0.112358       0.097220
      3 C                    -0.220141       0.057369
      4 C                    -0.068408       0.228096
      5 C                     0.007549       0.000143
      6 N                    -0.337747       0.092825
      7 H                     0.144515       0.000951
      8 H                     0.147516       0.002173
      9 H                     0.169925       0.017168
     10 H                     0.138208       0.096587
     11 H                     0.184072       0.002239
     12 C                    -0.242266       0.419804
     13 H                     0.171453       0.019180
  --------------------------------------------------------
  Sum of atomic charges =    -0.000000

                    Cartesian Multipole Moments
 -----------------------------------------------------------------
    Charge (ESU x 10^10)
                -0.0000
    Dipole Moment (Debye)
         X      -1.7415      Y      -0.8252      Z      -0.6211
       Tot       2.0248
    Quadrupole Moments (Debye-Ang)
        XX     -36.3187     XY      -4.5231     YY     -42.8212
        XZ      -0.4250     YZ       3.7427     ZZ     -43.4137

 Frequency:     -1956.55                -598.61                -250.85
 Force Cnst:      3.9584                 0.6017                 0.0831
 Red. Mass:       1.7550                 2.8499                 2.2408
 IR Intens:     1676.958                 52.387                 48.180
 Frequency:       125.27                 192.59                 393.30
 Force Cnst:      0.0339                 0.0843                 0.3428
 Red. Mass:       3.6690                 3.8583                 3.7615
 IR Intens:        7.252                  0.928                  1.291
 Frequency:       467.22                 620.17                 623.48
 Force Cnst:      0.5708                 0.9221                 0.3675
 Red. Mass:       4.4380                 4.0690                 1.6046
 IR Intens:        6.147                 16.927                 18.471
 Frequency:       691.81                 724.65                 744.75
 Force Cnst:      0.4377                 0.5477                 0.4811
 Red. Mass:       1.5524                 1.7701                 1.4721
 IR Intens:       58.658                 52.668                 64.873
 Frequency:       779.13                 829.81                 907.81
 Force Cnst:      0.9428                 0.6451                 1.1595
 Red. Mass:       2.6360                 1.5902                 2.3880
 IR Intens:       18.457                109.099                 34.201
 Frequency:       917.54                 940.87                1086.63
 Force Cnst:      0.6362                 1.0204                 1.4917
 Red. Mass:       1.2826                 1.9564                 2.1442
 IR Intens:        6.031                 13.578                 10.727
 Frequency:      1107.07                1162.44                1181.66
 Force Cnst:      1.1671                 0.9482                 1.0413
 Red. Mass:       1.6162                 1.1910                 1.2657
 IR Intens:       24.343                 13.369                 19.834
 Frequency:      1216.84                1315.53                1389.39
 Force Cnst:      1.1421                 1.5474                 1.6560
 Red. Mass:       1.3091                 1.5176                 1.4560
 IR Intens:       37.048                  4.378                  3.643
 Frequency:      1424.55                1482.24                1572.91
 Force Cnst:      2.0036                 7.1300                 7.0407
 Red. Mass:       1.6757                 5.5081                 4.8302
 IR Intens:      106.523                157.947                 23.556
 Frequency:      1657.61                3011.03                3124.60
 Force Cnst:      7.6580                 5.7973                 6.2963
 Red. Mass:       4.7305                 1.0853                 1.0946
 IR Intens:       44.997                 11.869                 11.899
 Frequency:      3190.96                3204.73                3247.67
 Force Cnst:      6.5524                 6.5941                 6.8169
 Red. Mass:       1.0922                 1.0897                 1.0970
 IR Intens:        4.831                  3.352                 19.579

 STANDARD THERMODYNAMIC QUANTITIES AT   298.15 K  AND     1.00 ATM

   This Molecule has  3 Imaginary Frequencies
   Zero point vibrational energy:       56.231 kcal/mol

   Atom    1 Element C  Has Mass   12.00000
   Atom    2 Element C  Has Mass   12.00000
   Atom    3 Element C  Has Mass   12.00000
   Atom    4 Element C  Has Mass   12.00000
   Atom    5 Element C  Has Mass   12.00000
   Atom    6 Element N  Has Mass   14.00307
   Atom    7 Element H  Has Mass    1.00783
   Atom    8 Element H  Has Mass    1.00783
   Atom    9 Element H  Has Mass    1.00783
   Atom   10 Element H  Has Mass    1.00783
   Atom   11 Element H  Has Mass    1.00783
   Atom   12 Element C  Has Mass   12.00000
   Atom   13 Element H  Has Mass    1.00783
   Molecular Mass:    92.050050 amu
   Principal axes and moments of inertia in amu*Bohr^2:
                             1           2           3
    Eigenvalues --      315.06070   774.91877   939.68849
          X               0.90242    -0.15995     0.40006
          Y               0.21072     0.97375    -0.08602
          Z              -0.37580     0.16193     0.91244
   Rotational Symmetry Number is   1
   The Molecule is an Asymmetric Top
   Translational Enthalpy:        0.889 kcal/mol
   Rotational Enthalpy:           0.889 kcal/mol
   Vibrational Enthalpy:         58.039 kcal/mol
   gas constant (RT):             0.592 kcal/mol
   Translational Entropy:        39.471  cal/mol.K
   Rotational Entropy:           26.931  cal/mol.K
   Vibrational Entropy:           9.771  cal/mol.K

   Total Enthalpy:               60.409 kcal/mol
   Total Entropy:                76.172  cal/mol.K

 Total job time:  259.79s(wall), 255.68s(cpu)
        *  Thank you very much for using Q-Chem.  Have a nice day.  *
