 Q-Chem 5.0, Q-Chem, Inc., Pleasanton, CA (2017)
 Q-Chem 5.0.2 for Intel X86 EM64T Linux

User input:
--------------------------------------------------------------
$molecule
0 2
C        1.9937342884    0.1985923771   -0.3003433535
C        1.1947837858   -0.8935734369   -0.4464968745
C       -0.2142280556   -0.5668360172   -0.6115426285
C       -1.1609038020   -0.0835125542    0.3993665766
C        0.0591559468    1.3066691356   -0.3228135891
N        1.3356760192    1.4060957710   -0.2120948043
H        3.0771242776    0.1980426309   -0.3101085985
H        1.5774755554   -1.8910150884   -0.6436702143
H       -0.7442830671   -1.2044328569   -1.3397589336
H       -2.4226264002   -0.4420246537    0.1327280954
H       -0.5958851144    2.1604291435   -0.1557178084
C       -1.7511287335   -0.4290825293    1.5366817919
H       -2.4716031207    0.1563052156    2.1121804281
$end

$rem
method                b3lyp
basis                 6-31g(d)
unrestricted          true
symmetry              off
sym_ignore            true
incdft                false
incfock               0
scf_convergence       6
thresh                14
jobtype               sp
scf_guess             read
scf_algorithm         diis
max_scf_cycles        100
stability_analysis    true
max_cis_cycles        100
cis_n_roots           4
$end

--------------------------------------------------------------

             Standard Nuclear Orientation (Angstroms)
    I     Atom           X                Y                Z
 ----------------------------------------------------------------
    1      C       1.9937342884     0.1985923771    -0.3003433535
    2      C       1.1947837858    -0.8935734369    -0.4464968745
    3      C      -0.2142280556    -0.5668360172    -0.6115426285
    4      C      -1.1609038020    -0.0835125542     0.3993665766
    5      C       0.0591559468     1.3066691356    -0.3228135891
    6      N       1.3356760192     1.4060957710    -0.2120948043
    7      H       3.0771242776     0.1980426309    -0.3101085985
    8      H       1.5774755554    -1.8910150884    -0.6436702143
    9      H      -0.7442830671    -1.2044328569    -1.3397589336
   10      H      -2.4226264002    -0.4420246537     0.1327280954
   11      H      -0.5958851144     2.1604291435    -0.1557178084
   12      C      -1.7511287335    -0.4290825293     1.5366817919
   13      H      -2.4716031207     0.1563052156     2.1121804281
 ----------------------------------------------------------------

    2    -286.6721528631      2.03E-09 Convergence criterion met
 Total energy in the final basis set = -286.67215286

         TDDFT/TDA Excitation Energies
 ---------------------------------------------------

 Excited state   1: excitation energy (eV) =    0.8959
 Total energy for state  1:                  -286.63922990 au
    <S**2>     :  0.7734
    Trans. Mom.: -0.5090 X  -0.0706 Y   0.4340 Z
    Strength   :     0.0099294838
    S(  1) --> V(  1) amplitude =  0.9743 alpha

 Excited state   2: excitation energy (eV) =    2.5694
 Total energy for state  2:                  -286.57772988 au
    <S**2>     :  1.9270
    Trans. Mom.: -0.1891 X  -0.1125 Y   0.0503 Z
    Strength   :     0.0032067246
    D( 24) --> V(  1) amplitude =  0.4468 alpha
    S(  1) --> V(  2) amplitude =  0.4420 alpha
    D( 23) --> S(  1) amplitude =  0.2020 beta
    D( 24) --> S(  1) amplitude =  0.7046 beta

 Excited state   3: excitation energy (eV) =    2.6766
 Total energy for state  3:                  -286.57378941 au
    <S**2>     :  1.2346
    Trans. Mom.: -0.1467 X  -0.0155 Y  -0.1774 Z
    Strength   :     0.0034906624
    D( 23) --> V(  1) amplitude = -0.2370 alpha
    D( 24) --> V(  1) amplitude = -0.1712 alpha
    S(  1) --> V(  2) amplitude =  0.8019 alpha
    D( 23) --> S(  1) amplitude = -0.3689 beta
    D( 24) --> S(  1) amplitude = -0.3066 beta

 Excited state   4: excitation energy (eV) =    2.9134
 Total energy for state  4:                  -286.56508734 au
    <S**2>     :  1.9177
    Trans. Mom.:  0.2678 X  -0.0120 Y  -0.3440 Z
    Strength   :     0.0135739395
    D( 23) --> V(  1) amplitude =  0.4075 alpha
    D( 24) --> V(  1) amplitude =  0.1768 alpha
    S(  1) --> V(  2) amplitude =  0.3225 alpha
    D( 23) --> S(  1) amplitude =  0.6396 beta
    D( 24) --> S(  1) amplitude = -0.4386 beta

 ---------------------------------------------------

                    Orbital Energies (a.u.)
 --------------------------------------------------------------

 Alpha MOs
 -- Occupied --
-14.337 -10.252 -10.249 -10.231 -10.224 -10.212 -10.194  -0.948
 -0.833  -0.767  -0.717  -0.615  -0.574  -0.518  -0.512  -0.454
 -0.446  -0.423  -0.388  -0.372  -0.359  -0.303  -0.250  -0.232
 -0.151

 Beta MOs
 -- Occupied --
-14.335 -10.253 -10.245 -10.229 -10.217 -10.212 -10.193  -0.945
 -0.822  -0.762  -0.711  -0.610  -0.569  -0.516  -0.502  -0.451
 -0.441  -0.416  -0.382  -0.365  -0.346  -0.291  -0.235  -0.225

          Ground-State Mulliken Net Atomic Charges

     Atom                 Charge (a.u.)    Spin (a.u.)
  --------------------------------------------------------
      1 C                     0.017682      -0.033758
      2 C                    -0.112358       0.097222
      3 C                    -0.220141       0.057368
      4 C                    -0.068408       0.228096
      5 C                     0.007549       0.000143
      6 N                    -0.337747       0.092826
      7 H                     0.144515       0.000951
      8 H                     0.147516       0.002173
      9 H                     0.169925       0.017168
     10 H                     0.138208       0.096587
     11 H                     0.184072       0.002239
     12 C                    -0.242266       0.419804
     13 H                     0.171453       0.019180
  --------------------------------------------------------
  Sum of atomic charges =    -0.000000

                    Cartesian Multipole Moments
 -----------------------------------------------------------------
    Charge (ESU x 10^10)
                -0.0000
    Dipole Moment (Debye)
         X      -1.7415      Y      -0.8252      Z      -0.6211
       Tot       2.0248
    Quadrupole Moments (Debye-Ang)
        XX     -36.3187     XY      -4.5231     YY     -42.8212
        XZ      -0.4250     YZ       3.7427     ZZ     -43.4137

 Total job time:  87.11s(wall), 84.35s(cpu)
        *  Thank you very much for using Q-Chem.  Have a nice day.  *
