 Q-Chem 5.0, Q-Chem, Inc., Pleasanton, CA (2017)
 Q-Chem 5.0.2 for Intel X86 EM64T Linux

User input:
--------------------------------------------------------------
$molecule
0 2
C        1.9937342884    0.1985923771   -0.3003433535
C        1.1947837858   -0.8935734369   -0.4464968745
C       -0.2142280556   -0.5668360172   -0.6115426285
C       -1.1609038020   -0.0835125542    0.3993665766
C        0.0591559468    1.3066691356   -0.3228135891
N        1.3356760192    1.4060957710   -0.2120948043
H        3.0771242776    0.1980426309   -0.3101085985
H        1.5774755554   -1.8910150884   -0.6436702143
H       -0.7442830671   -1.2044328569   -1.3397589336
H       -2.4226264002   -0.4420246537    0.1327280954
H       -0.5958851144    2.1604291435   -0.1557178084
C       -1.7511287335   -0.4290825293    1.5366817919
H       -2.4716031207    0.1563052156    2.1121804281
$end

$rem
method                b3lyp
basis                 6-31g(d)
unrestricted          true
symmetry              off
sym_ignore            true
incdft                false
incfock               0
scf_convergence       8
thresh                14
jobtype               ts
scf_guess             read
scf_algorithm         diis
max_scf_cycles        100
geom_opt_max_cycles   500
geom_opt_dmax         100
geom_opt_tol_gradient 10
geom_opt_hessian      read
$end

--------------------------------------------------------------

    2    -286.6721528631      3.70E-10 Convergence criterion met
 Total energy in the final basis set = -286.67215286
   17    -286.6750641715      6.39E-09 Convergence criterion met
 Total energy in the final basis set = -286.67506417
   17    -286.6784911914      5.48E-09 Convergence criterion met
 Total energy in the final basis set = -286.67849119
   17    -286.6822561579      4.62E-09 Convergence criterion met
 Total energy in the final basis set = -286.68225616
   16    -286.6862840570      9.72E-09 Convergence criterion met
 Total energy in the final basis set = -286.68628406
   16    -286.6905296028      7.65E-09 Convergence criterion met
 Total energy in the final basis set = -286.69052960
   16    -286.6949383817      6.09E-09 Convergence criterion met
 Total energy in the final basis set = -286.69493838
   16    -286.6994542093      5.12E-09 Convergence criterion met
    6    -286.7637087695      8.45E-09 Convergence criterion met
 Total energy in the final basis set = -286.76370877
    6    -286.7637087696      7.39E-09 Convergence criterion met
 Total energy in the final basis set = -286.76370877
    7    -286.7637087696      4.35E-09 Convergence criterion met
 Total energy in the final basis set = -286.76370877
    6    -286.7637087696      9.26E-09 Convergence criterion met
 Total energy in the final basis set = -286.76370877
    7    -286.7637087696      4.23E-09 Convergence criterion met
 Total energy in the final basis set = -286.76370877
    7    -286.7637087696      4.28E-09 Convergence criterion met
 Total energy in the final basis set = -286.76370877

             Standard Nuclear Orientation (Angstroms)
    I     Atom           X                Y                Z
 ----------------------------------------------------------------
    1      C       2.0523007183     0.1567020619    -0.4098177778
    2      C       1.0939013491    -0.7554373006    -0.1730158308
    3      C      -0.2359133896    -0.0681708829    -0.3874663234
    4      C      -1.0785700249    -0.1363483193     0.8688980009
    5      C       0.2520680897     1.3220051239    -0.7412466182
    6      N       1.5338650237     1.4388857168    -0.7640305060
    7      H       3.1275152602     0.0252132625    -0.3719666269
    8      H       1.2076095012    -1.7929005920     0.1125267451
    9      H      -0.7677000351    -0.5129777878    -1.2475547067
   10      H      -2.3176752535     0.1361271993     0.6580895856
   11      H      -0.4048591685     2.1598828596    -0.9650602813
   12      C      -2.0304273233    -1.0464797938     1.1470615255
   13      H      -2.5548231675    -1.0108444129     2.1119929012
 ----------------------------------------------------------------

    6    -286.7637087696      8.88E-09 Convergence criterion met
 Total energy in the final basis set = -286.76370877
 Final energy is   -286.763708769568
 **  OPTIMIZATION CONVERGED  **

                    Orbital Energies (a.u.)
 --------------------------------------------------------------

 Alpha MOs
 -- Occupied --
-14.335 -10.238 -10.233 -10.224 -10.223 -10.218 -10.200  -0.955
 -0.847  -0.769  -0.727  -0.598  -0.559  -0.542  -0.506  -0.478
 -0.425  -0.414  -0.393  -0.371  -0.358  -0.329  -0.270  -0.248
 -0.180

 Beta MOs
 -- Occupied --
-14.335 -10.233 -10.231 -10.223 -10.218 -10.216 -10.200  -0.955
 -0.835  -0.766  -0.725  -0.593  -0.559  -0.534  -0.500  -0.469
 -0.422  -0.411  -0.390  -0.369  -0.353  -0.286  -0.264  -0.247

          Ground-State Mulliken Net Atomic Charges

     Atom                 Charge (a.u.)    Spin (a.u.)
  --------------------------------------------------------
      1 C                     0.018720       0.000287
      2 C                    -0.126160      -0.000642
      3 C                    -0.245963       0.009326
      4 C                    -0.059353       0.472481
      5 C                     0.090830       0.002038
      6 N                    -0.367926      -0.002417
      7 H                     0.147194      -0.000100
      8 H                     0.154811       0.000094
      9 H                     0.185838       0.033822
     10 H                     0.184202       0.015471
     11 H                     0.150057       0.000536
     12 C                    -0.306434       0.431469
     13 H                     0.174185       0.037635
  --------------------------------------------------------
  Sum of atomic charges =    -0.000000

                    Cartesian Multipole Moments
 -----------------------------------------------------------------
    Charge (ESU x 10^10)
                -0.0000
    Dipole Moment (Debye)
         X      -1.4762      Y      -0.8969      Z       0.0071
       Tot       1.7273
    Quadrupole Moments (Debye-Ang)
        XX     -39.0142     XY      -6.8559     YY     -44.6360
        XZ       0.5253     YZ      -0.0278     ZZ     -41.7484

 Total job time:  1701.82s(wall), 5790.67s(cpu)
        *  Thank you very much for using Q-Chem.  Have a nice day.  *
