 Q-Chem 5.0, Q-Chem, Inc., Pleasanton, CA (2017)
 Q-Chem 5.0.2 for Intel X86 EM64T Linux

User input:
--------------------------------------------------------------
$molecule
0 2
C        2.0576312224    0.1537996266   -0.4196453412
C        1.0948059915   -0.7517514498   -0.1642955122
C       -0.2325411141   -0.0585007043   -0.3763933447
C       -1.0917457650   -0.1329045260    0.8641097506
C        0.2558146571    1.3294704712   -0.7377299563
N        1.5393921962    1.4348978743   -0.7765628750
H        3.1313966052    0.0158844098   -0.3922778985
H        1.2075625536   -1.7876564413    0.1255515569
H       -0.7577598552   -0.5024000024   -1.2415523619
H       -2.3367149418    0.1110515697    0.6436705906
H       -0.3974965784    2.1696810081   -0.9589864425
C       -2.0266083599   -1.0509199110    1.1594929901
H       -2.5664450319   -1.0149947903    2.1130289312
$end

$rem
method                b3lyp
basis                 6-31+g(d,p)
unrestricted          true
symmetry              off
sym_ignore            true
incdft                false
incfock               0
scf_convergence       8
thresh                14
jobtype               freq
scf_guess             read
scf_algorithm         diis
max_scf_cycles        100
$end

--------------------------------------------------------------

             Standard Nuclear Orientation (Angstroms)
    I     Atom           X                Y                Z
 ----------------------------------------------------------------
    1      C       2.0576312224     0.1537996266    -0.4196453412
    2      C       1.0948059915    -0.7517514498    -0.1642955122
    3      C      -0.2325411141    -0.0585007043    -0.3763933447
    4      C      -1.0917457650    -0.1329045260     0.8641097506
    5      C       0.2558146571     1.3294704712    -0.7377299563
    6      N       1.5393921962     1.4348978743    -0.7765628750
    7      H       3.1313966052     0.0158844098    -0.3922778985
    8      H       1.2075625536    -1.7876564413     0.1255515569
    9      H      -0.7577598552    -0.5024000024    -1.2415523619
   10      H      -2.3367149418     0.1110515697     0.6436705906
   11      H      -0.3974965784     2.1696810081    -0.9589864425
   12      C      -2.0266083599    -1.0509199110     1.1594929901
   13      H      -2.5664450319    -1.0149947903     2.1130289312
 ----------------------------------------------------------------

    2    -286.7922229913      6.16E-10 Convergence criterion met
 Total energy in the final basis set = -286.79222299

                    Orbital Energies (a.u.)
 --------------------------------------------------------------

 Alpha MOs
 -- Occupied --
-14.350 -10.255 -10.245 -10.239 -10.237 -10.229 -10.213  -0.968
 -0.861  -0.781  -0.739  -0.610  -0.569  -0.554  -0.516  -0.491
 -0.436  -0.427  -0.406  -0.383  -0.371  -0.342  -0.283  -0.260
 -0.193

 Beta MOs
 -- Occupied --
-14.350 -10.248 -10.244 -10.236 -10.233 -10.229 -10.213  -0.968
 -0.849  -0.779  -0.737  -0.605  -0.569  -0.547  -0.510  -0.482
 -0.433  -0.423  -0.403  -0.381  -0.365  -0.302  -0.278  -0.259

          Ground-State Mulliken Net Atomic Charges

     Atom                 Charge (a.u.)    Spin (a.u.)
  --------------------------------------------------------
      1 C                    -0.124979      -0.026853
      2 C                    -0.059513      -0.004263
      3 C                     0.023558      -0.130655
      4 C                    -0.114107       0.565889
      5 C                     0.018872      -0.114529
      6 N                    -0.198455       0.010518
      7 H                     0.136793      -0.000066
      8 H                     0.148178      -0.000319
      9 H                     0.190973       0.029136
     10 H                     0.154160      -0.002380
     11 H                     0.139769      -0.000059
     12 C                    -0.483730       0.631998
     13 H                     0.168480       0.041582
  --------------------------------------------------------
  Sum of atomic charges =    -0.000000

                    Cartesian Multipole Moments
 -----------------------------------------------------------------
    Charge (ESU x 10^10)
                 0.0000
    Dipole Moment (Debye)
         X      -1.6263      Y      -0.9570      Z       0.0823
       Tot       1.8888
    Quadrupole Moments (Debye-Ang)
        XX     -40.2581     XY      -7.4781     YY     -46.8387
        XZ       0.4171     YZ      -0.2409     ZZ     -43.4155

 Frequency:      -954.02                  81.28                 133.05
 Force Cnst:      0.7069                 0.0157                 0.0472
 Red. Mass:       1.3182                 4.0230                 4.5277
 IR Intens:      104.975                  5.438                  1.735
 Frequency:       249.85                 393.98                 485.34
 Force Cnst:      0.0921                 0.3952                 0.4279
 Red. Mass:       2.5049                 4.3213                 3.0835
 IR Intens:        7.029                 42.409                 15.302
 Frequency:       571.83                 690.41                 739.38
 Force Cnst:      0.5557                 0.4310                 0.4649
 Red. Mass:       2.8844                 1.5348                 1.4433
 IR Intens:       12.485                 13.246                 40.045
 Frequency:       785.21                 839.58                 883.90
 Force Cnst:      0.5403                 2.4231                 0.8461
 Red. Mass:       1.4874                 5.8343                 1.8382
 IR Intens:       21.392                  2.000                 41.997
 Frequency:       902.00                 953.85                 966.76
 Force Cnst:      1.0871                 0.7475                 0.9209
 Red. Mass:       2.2679                 1.3944                 1.6724
 IR Intens:       20.865                  6.100                 53.158
 Frequency:      1016.63                1025.86                1067.03
 Force Cnst:      1.6864                 1.0809                 2.1988
 Red. Mass:       2.7695                 1.7433                 3.2778
 IR Intens:        3.758                  7.264                  3.603
 Frequency:      1135.48                1193.26                1222.12
 Force Cnst:      0.9238                 1.3800                 1.3079
 Red. Mass:       1.2161                 1.6449                 1.4862
 IR Intens:        7.333                  0.892                  9.800
 Frequency:      1265.02                1297.26                1357.42
 Force Cnst:      1.1242                 1.3587                 1.8533
 Red. Mass:       1.1923                 1.3703                 1.7071
 IR Intens:       43.142                  1.916                  5.531
 Frequency:      1552.12                1575.72                1640.30
 Force Cnst:     11.8396                 9.6100                10.3659
 Red. Mass:       8.3413                 6.5692                 6.5390
 IR Intens:       43.022                  1.389                 25.534
 Frequency:      2218.71                2973.90                3074.42
 Force Cnst:      3.0736                 5.6325                 6.0680
 Red. Mass:       1.0597                 1.0809                 1.0896
 IR Intens:        4.406                 10.455                 16.025
 Frequency:      3195.92                3239.68                3266.19
 Force Cnst:      6.5822                 6.7338                 6.9435
 Red. Mass:       1.0938                 1.0889                 1.1047
 IR Intens:        6.932                  4.427                  4.245

 STANDARD THERMODYNAMIC QUANTITIES AT   298.15 K  AND     1.00 ATM

   This Molecule has  1 Imaginary Frequencies
   Zero point vibrational energy:       60.033 kcal/mol

   Atom    1 Element C  Has Mass   12.00000
   Atom    2 Element C  Has Mass   12.00000
   Atom    3 Element C  Has Mass   12.00000
   Atom    4 Element C  Has Mass   12.00000
   Atom    5 Element C  Has Mass   12.00000
   Atom    6 Element N  Has Mass   14.00307
   Atom    7 Element H  Has Mass    1.00783
   Atom    8 Element H  Has Mass    1.00783
   Atom    9 Element H  Has Mass    1.00783
   Atom   10 Element H  Has Mass    1.00783
   Atom   11 Element H  Has Mass    1.00783
   Atom   12 Element C  Has Mass   12.00000
   Atom   13 Element H  Has Mass    1.00783
   Molecular Mass:    92.050050 amu
   Principal axes and moments of inertia in amu*Bohr^2:
                             1           2           3
    Eigenvalues --      242.26363   906.63913  1082.36388
          X               0.82976    -0.48900     0.26901
          Y               0.37722     0.84662     0.37543
          Z              -0.41133    -0.21004     0.88696
   Rotational Symmetry Number is   1
   The Molecule is an Asymmetric Top
   Translational Enthalpy:        0.889 kcal/mol
   Rotational Enthalpy:           0.889 kcal/mol
   Vibrational Enthalpy:         62.175 kcal/mol
   gas constant (RT):             0.592 kcal/mol
   Translational Entropy:        39.471  cal/mol.K
   Rotational Entropy:           26.966  cal/mol.K
   Vibrational Entropy:          12.642  cal/mol.K

   Total Enthalpy:               64.544 kcal/mol
   Total Entropy:                79.078  cal/mol.K

 Total job time:  529.11s(wall), 519.81s(cpu)
        *  Thank you very much for using Q-Chem.  Have a nice day.  *
