 Q-Chem 5.0, Q-Chem, Inc., Pleasanton, CA (2017)
 Q-Chem 5.0.2 for Intel X86 EM64T Linux

User input:
--------------------------------------------------------------
$molecule
0 2
C        2.0523007183    0.1567020619   -0.4098177778
C        1.0939013491   -0.7554373006   -0.1730158308
C       -0.2359133896   -0.0681708829   -0.3874663234
C       -1.0785700249   -0.1363483193    0.8688980009
C        0.2520680897    1.3220051239   -0.7412466182
N        1.5338650237    1.4388857168   -0.7640305060
H        3.1275152602    0.0252132625   -0.3719666269
H        1.2076095012   -1.7929005920    0.1125267451
H       -0.7677000351   -0.5129777878   -1.2475547067
H       -2.3176752535    0.1361271993    0.6580895856
H       -0.4048591685    2.1598828596   -0.9650602813
C       -2.0304273233   -1.0464797938    1.1470615255
H       -2.5548231675   -1.0108444129    2.1119929012
$end

$rem
method                b3lyp
basis                 6-31+g(d,p)
unrestricted          true
symmetry              off
sym_ignore            true
incdft                false
incfock               0
scf_convergence       6
thresh                14
jobtype               sp
scf_guess             read
scf_algorithm         diis
max_scf_cycles        100
stability_analysis    true
max_cis_cycles        100
cis_n_roots           4
$end

--------------------------------------------------------------

             Standard Nuclear Orientation (Angstroms)
    I     Atom           X                Y                Z
 ----------------------------------------------------------------
    1      C       2.0523007183     0.1567020619    -0.4098177778
    2      C       1.0939013491    -0.7554373006    -0.1730158308
    3      C      -0.2359133896    -0.0681708829    -0.3874663234
    4      C      -1.0785700249    -0.1363483193     0.8688980009
    5      C       0.2520680897     1.3220051239    -0.7412466182
    6      N       1.5338650237     1.4388857168    -0.7640305060
    7      H       3.1275152602     0.0252132625    -0.3719666269
    8      H       1.2076095012    -1.7929005920     0.1125267451
    9      H      -0.7677000351    -0.5129777878    -1.2475547067
   10      H      -2.3176752535     0.1361271993     0.6580895856
   11      H      -0.4048591685     2.1598828596    -0.9650602813
   12      C      -2.0304273233    -1.0464797938     1.1470615255
   13      H      -2.5548231675    -1.0108444129     2.1119929012
 ----------------------------------------------------------------

    2    -286.7921250883      2.93E-09 Convergence criterion met
 Total energy in the final basis set = -286.79212509

         TDDFT/TDA Excitation Energies
 ---------------------------------------------------

 Excited state   1: excitation energy (eV) =    2.2202
 Total energy for state  1:                  -286.71053560 au
    <S**2>     :  0.7615
    Trans. Mom.:  0.0980 X  -0.0003 Y   0.0528 Z
    Strength   :     0.0006737581
    S(  1) --> V(  1) amplitude =  0.6462 alpha
    S(  1) --> V(  2) amplitude =  0.7490 alpha

 Excited state   2: excitation energy (eV) =    2.8595
 Total energy for state  2:                  -286.68703985 au
    <S**2>     :  0.8609
    Trans. Mom.:  0.1072 X   0.0269 Y  -0.0766 Z
    Strength   :     0.0012660068
    S(  1) --> V(  1) amplitude =  0.7431 alpha
    S(  1) --> V(  2) amplitude = -0.6338 alpha

 Excited state   3: excitation energy (eV) =    3.2172
 Total energy for state  3:                  -286.67389399 au
    <S**2>     :  2.6569
    Trans. Mom.: -0.0228 X  -0.0021 Y   0.0140 Z
    Strength   :     0.0000570125
    D( 24) --> V(  1) amplitude = -0.6521 alpha
    D( 24) --> V(  2) amplitude =  0.2089 alpha
    S(  1) --> V(  1) amplitude = -0.1515 alpha
    D( 24) --> V(  1) amplitude =  0.6609 beta

 Excited state   4: excitation energy (eV) =    3.7405
 Total energy for state  4:                  -286.65466258 au
    <S**2>     :  0.7906
    Trans. Mom.: -0.1689 X  -0.1456 Y   0.0053 Z
    Strength   :     0.0045610328
    D( 24) --> S(  1) amplitude =  0.9938 beta

 ---------------------------------------------------

                    Orbital Energies (a.u.)
 --------------------------------------------------------------

 Alpha MOs
 -- Occupied --
-14.350 -10.256 -10.244 -10.240 -10.237 -10.229 -10.212  -0.969
 -0.861  -0.781  -0.738  -0.609  -0.569  -0.553  -0.516  -0.490
 -0.436  -0.425  -0.405  -0.383  -0.371  -0.343  -0.283  -0.260
 -0.196

 Beta MOs
 -- Occupied --
-14.350 -10.248 -10.244 -10.235 -10.234 -10.229 -10.212  -0.969
 -0.849  -0.779  -0.736  -0.604  -0.569  -0.546  -0.511  -0.481
 -0.433  -0.422  -0.401  -0.380  -0.365  -0.302  -0.278  -0.259

          Ground-State Mulliken Net Atomic Charges

     Atom                 Charge (a.u.)    Spin (a.u.)
  --------------------------------------------------------
      1 C                    -0.122481      -0.027580
      2 C                    -0.060169      -0.007248
      3 C                     0.021200      -0.116260
      4 C                    -0.120755       0.562402
      5 C                     0.014009      -0.112386
      6 N                    -0.198481       0.010413
      7 H                     0.136437      -0.000042
      8 H                     0.147727      -0.000299
      9 H                     0.189905       0.028933
     10 H                     0.154252      -0.003174
     11 H                     0.139082      -0.000036
     12 C                    -0.468819       0.623069
     13 H                     0.168093       0.042208
  --------------------------------------------------------
  Sum of atomic charges =    -0.000000

                    Cartesian Multipole Moments
 -----------------------------------------------------------------
    Charge (ESU x 10^10)
                 0.0000
    Dipole Moment (Debye)
         X      -1.6137      Y      -0.9673      Z       0.0859
       Tot       1.8834
    Quadrupole Moments (Debye-Ang)
        XX     -40.4190     XY      -7.4826     YY     -46.7374
        XZ       0.3513     YZ      -0.2651     ZZ     -43.3673

 Total job time:  211.34s(wall), 205.61s(cpu)
        *  Thank you very much for using Q-Chem.  Have a nice day.  *
