 Q-Chem 5.0, Q-Chem, Inc., Pleasanton, CA (2017)
 Q-Chem 5.0.2 for Intel X86 EM64T Linux

User input:
--------------------------------------------------------------
$molecule
0 2
C        2.0523007183    0.1567020619   -0.4098177778
C        1.0939013491   -0.7554373006   -0.1730158308
C       -0.2359133896   -0.0681708829   -0.3874663234
C       -1.0785700249   -0.1363483193    0.8688980009
C        0.2520680897    1.3220051239   -0.7412466182
N        1.5338650237    1.4388857168   -0.7640305060
H        3.1275152602    0.0252132625   -0.3719666269
H        1.2076095012   -1.7929005920    0.1125267451
H       -0.7677000351   -0.5129777878   -1.2475547067
H       -2.3176752535    0.1361271993    0.6580895856
H       -0.4048591685    2.1598828596   -0.9650602813
C       -2.0304273233   -1.0464797938    1.1470615255
H       -2.5548231675   -1.0108444129    2.1119929012
$end

$rem
method                b3lyp
basis                 6-31g(d)
unrestricted          true
symmetry              off
sym_ignore            true
incdft                false
incfock               0
scf_convergence       6
thresh                14
jobtype               sp
scf_guess             read
scf_algorithm         diis
max_scf_cycles        100
stability_analysis    true
max_cis_cycles        100
cis_n_roots           4
$end

--------------------------------------------------------------

             Standard Nuclear Orientation (Angstroms)
    I     Atom           X                Y                Z
 ----------------------------------------------------------------
    1      C       2.0523007183     0.1567020619    -0.4098177778
    2      C       1.0939013491    -0.7554373006    -0.1730158308
    3      C      -0.2359133896    -0.0681708829    -0.3874663234
    4      C      -1.0785700249    -0.1363483193     0.8688980009
    5      C       0.2520680897     1.3220051239    -0.7412466182
    6      N       1.5338650237     1.4388857168    -0.7640305060
    7      H       3.1275152602     0.0252132625    -0.3719666269
    8      H       1.2076095012    -1.7929005920     0.1125267451
    9      H      -0.7677000351    -0.5129777878    -1.2475547067
   10      H      -2.3176752535     0.1361271993     0.6580895856
   11      H      -0.4048591685     2.1598828596    -0.9650602813
   12      C      -2.0304273233    -1.0464797938     1.1470615255
   13      H      -2.5548231675    -1.0108444129     2.1119929012
 ----------------------------------------------------------------

    2    -286.7637087695      2.74E-09 Convergence criterion met
 Total energy in the final basis set = -286.76370877

         TDDFT/TDA Excitation Energies
 ---------------------------------------------------

 Excited state   1: excitation energy (eV) =    2.2323
 Total energy for state  1:                  -286.68167409 au
    <S**2>     :  0.7633
    Trans. Mom.:  0.0855 X   0.0151 Y   0.0254 Z
    Strength   :     0.0004478079
    S(  1) --> V(  1) amplitude =  0.6521 alpha
    S(  1) --> V(  2) amplitude =  0.7468 alpha

 Excited state   2: excitation energy (eV) =    2.8685
 Total energy for state  2:                  -286.65829252 au
    <S**2>     :  0.8644
    Trans. Mom.:  0.1126 X   0.0518 Y  -0.0500 Z
    Strength   :     0.0012543760
    S(  1) --> V(  1) amplitude =  0.7374 alpha
    S(  1) --> V(  2) amplitude = -0.6385 alpha

 Excited state   3: excitation energy (eV) =    3.2252
 Total energy for state  3:                  -286.64518333 au
    <S**2>     :  2.6524
    Trans. Mom.: -0.0260 X  -0.0104 Y   0.0104 Z
    Strength   :     0.0000704877
    D( 24) --> V(  1) amplitude = -0.6625 alpha
    D( 24) --> V(  2) amplitude =  0.1737 alpha
    S(  1) --> V(  1) amplitude = -0.1570 alpha
    D( 24) --> V(  1) amplitude =  0.6610 beta

 Excited state   4: excitation energy (eV) =    4.0994
 Total energy for state  4:                  -286.61305940 au
    <S**2>     :  0.7724
    Trans. Mom.: -0.1784 X  -0.1569 Y   0.0448 Z
    Strength   :     0.0058706950
    D( 24) --> S(  1) amplitude =  0.9918 beta

 ---------------------------------------------------

                    Orbital Energies (a.u.)
 --------------------------------------------------------------

 Alpha MOs
 -- Occupied --
-14.335 -10.238 -10.233 -10.224 -10.223 -10.218 -10.200  -0.955
 -0.847  -0.769  -0.727  -0.598  -0.559  -0.542  -0.506  -0.478
 -0.425  -0.414  -0.393  -0.371  -0.358  -0.329  -0.270  -0.248
 -0.180

 Beta MOs
 -- Occupied --
-14.335 -10.233 -10.231 -10.223 -10.218 -10.216 -10.200  -0.955
 -0.835  -0.766  -0.725  -0.593  -0.559  -0.534  -0.500  -0.469
 -0.422  -0.411  -0.390  -0.369  -0.353  -0.286  -0.264  -0.247

          Ground-State Mulliken Net Atomic Charges

     Atom                 Charge (a.u.)    Spin (a.u.)
  --------------------------------------------------------
      1 C                     0.018720       0.000287
      2 C                    -0.126160      -0.000642
      3 C                    -0.245963       0.009326
      4 C                    -0.059353       0.472481
      5 C                     0.090830       0.002038
      6 N                    -0.367926      -0.002417
      7 H                     0.147194      -0.000100
      8 H                     0.154811       0.000094
      9 H                     0.185838       0.033822
     10 H                     0.184202       0.015471
     11 H                     0.150057       0.000536
     12 C                    -0.306434       0.431469
     13 H                     0.174185       0.037635
  --------------------------------------------------------
  Sum of atomic charges =    -0.000000

                    Cartesian Multipole Moments
 -----------------------------------------------------------------
    Charge (ESU x 10^10)
                 0.0000
    Dipole Moment (Debye)
         X      -1.4762      Y      -0.8969      Z       0.0071
       Tot       1.7273
    Quadrupole Moments (Debye-Ang)
        XX     -39.0142     XY      -6.8559     YY     -44.6360
        XZ       0.5253     YZ      -0.0278     ZZ     -41.7484

 Total job time:  97.39s(wall), 94.67s(cpu)
        *  Thank you very much for using Q-Chem.  Have a nice day.  *
