 Q-Chem 5.0, Q-Chem, Inc., Pleasanton, CA (2017)
 Q-Chem 5.0.2 for Intel X86 EM64T Linux

User input:
--------------------------------------------------------------
$molecule
0 2
C        2.0523007183    0.1567020619   -0.4098177778
C        1.0939013491   -0.7554373006   -0.1730158308
C       -0.2359133896   -0.0681708829   -0.3874663234
C       -1.0785700249   -0.1363483193    0.8688980009
C        0.2520680897    1.3220051239   -0.7412466182
N        1.5338650237    1.4388857168   -0.7640305060
H        3.1275152602    0.0252132625   -0.3719666269
H        1.2076095012   -1.7929005920    0.1125267451
H       -0.7677000351   -0.5129777878   -1.2475547067
H       -2.3176752535    0.1361271993    0.6580895856
H       -0.4048591685    2.1598828596   -0.9650602813
C       -2.0304273233   -1.0464797938    1.1470615255
H       -2.5548231675   -1.0108444129    2.1119929012
$end

$rem
method                b3lyp
basis                 6-31+g(d,p)
unrestricted          true
symmetry              off
sym_ignore            true
incdft                false
incfock               0
scf_convergence       8
thresh                14
jobtype               ts
scf_guess             read
scf_algorithm         diis
max_scf_cycles        100
geom_opt_max_cycles   500
geom_opt_dmax         100
geom_opt_tol_gradient 10
geom_opt_hessian      read
$end

--------------------------------------------------------------

    2    -286.7921250884      5.94E-10 Convergence criterion met
 Total energy in the final basis set = -286.79212509
   14    -286.7922220793      6.16E-09 Convergence criterion met
 Total energy in the final basis set = -286.79222208
   13    -286.7922229071      6.11E-09 Convergence criterion met
 Total energy in the final basis set = -286.79222291

             Standard Nuclear Orientation (Angstroms)
    I     Atom           X                Y                Z
 ----------------------------------------------------------------
    1      C       2.0576312224     0.1537996266    -0.4196453412
    2      C       1.0948059915    -0.7517514498    -0.1642955122
    3      C      -0.2325411141    -0.0585007043    -0.3763933447
    4      C      -1.0917457650    -0.1329045260     0.8641097506
    5      C       0.2558146571     1.3294704712    -0.7377299563
    6      N       1.5393921962     1.4348978743    -0.7765628750
    7      H       3.1313966052     0.0158844098    -0.3922778985
    8      H       1.2075625536    -1.7876564413     0.1255515569
    9      H      -0.7577598552    -0.5024000024    -1.2415523619
   10      H      -2.3367149418     0.1110515697     0.6436705906
   11      H      -0.3974965784     2.1696810081    -0.9589864425
   12      C      -2.0266083599    -1.0509199110     1.1594929901
   13      H      -2.5664450319    -1.0149947903     2.1130289312
 ----------------------------------------------------------------

   12    -286.7922229914      6.37E-09 Convergence criterion met
 Total energy in the final basis set = -286.79222299
 Final energy is   -286.792222991396
 **  OPTIMIZATION CONVERGED  **

                    Orbital Energies (a.u.)
 --------------------------------------------------------------

 Alpha MOs
 -- Occupied --
-14.350 -10.255 -10.245 -10.239 -10.237 -10.229 -10.213  -0.968
 -0.861  -0.781  -0.739  -0.610  -0.569  -0.554  -0.516  -0.491
 -0.436  -0.427  -0.406  -0.383  -0.371  -0.342  -0.283  -0.260
 -0.193

 Beta MOs
 -- Occupied --
-14.350 -10.248 -10.244 -10.236 -10.233 -10.229 -10.213  -0.968
 -0.849  -0.779  -0.737  -0.605  -0.569  -0.547  -0.510  -0.482
 -0.433  -0.423  -0.403  -0.381  -0.365  -0.302  -0.278  -0.259

          Ground-State Mulliken Net Atomic Charges

     Atom                 Charge (a.u.)    Spin (a.u.)
  --------------------------------------------------------
      1 C                    -0.124979      -0.026854
      2 C                    -0.059513      -0.004261
      3 C                     0.023558      -0.130655
      4 C                    -0.114107       0.565890
      5 C                     0.018872      -0.114530
      6 N                    -0.198455       0.010519
      7 H                     0.136793      -0.000066
      8 H                     0.148178      -0.000319
      9 H                     0.190973       0.029136
     10 H                     0.154160      -0.002380
     11 H                     0.139769      -0.000059
     12 C                    -0.483730       0.631997
     13 H                     0.168480       0.041582
  --------------------------------------------------------
  Sum of atomic charges =     0.000000

                    Cartesian Multipole Moments
 -----------------------------------------------------------------
    Charge (ESU x 10^10)
                 0.0000
    Dipole Moment (Debye)
         X      -1.6263      Y      -0.9570      Z       0.0823
       Tot       1.8888
    Quadrupole Moments (Debye-Ang)
        XX     -40.2581     XY      -7.4781     YY     -46.8387
        XZ       0.4171     YZ      -0.2409     ZZ     -43.4155

 Total job time:  75.70s(wall), 264.72s(cpu)
        *  Thank you very much for using Q-Chem.  Have a nice day.  *
