 Q-Chem 5.0, Q-Chem, Inc., Pleasanton, CA (2017)
 Q-Chem 5.0.2 for Intel X86 EM64T Linux

User input:
--------------------------------------------------------------
$molecule
0 2
C        2.0523007183    0.1567020619   -0.4098177778
C        1.0939013491   -0.7554373006   -0.1730158308
C       -0.2359133896   -0.0681708829   -0.3874663234
C       -1.0785700249   -0.1363483193    0.8688980009
C        0.2520680897    1.3220051239   -0.7412466182
N        1.5338650237    1.4388857168   -0.7640305060
H        3.1275152602    0.0252132625   -0.3719666269
H        1.2076095012   -1.7929005920    0.1125267451
H       -0.7677000351   -0.5129777878   -1.2475547067
H       -2.3176752535    0.1361271993    0.6580895856
H       -0.4048591685    2.1598828596   -0.9650602813
C       -2.0304273233   -1.0464797938    1.1470615255
H       -2.5548231675   -1.0108444129    2.1119929012
$end

$rem
method                b3lyp
basis                 6-31+g(d,p)
unrestricted          true
symmetry              off
sym_ignore            true
incdft                false
incfock               0
scf_convergence       8
thresh                14
jobtype               freq
scf_guess             read
scf_algorithm         diis
max_scf_cycles        100
$end

--------------------------------------------------------------

             Standard Nuclear Orientation (Angstroms)
    I     Atom           X                Y                Z
 ----------------------------------------------------------------
    1      C       2.0523007183     0.1567020619    -0.4098177778
    2      C       1.0939013491    -0.7554373006    -0.1730158308
    3      C      -0.2359133896    -0.0681708829    -0.3874663234
    4      C      -1.0785700249    -0.1363483193     0.8688980009
    5      C       0.2520680897     1.3220051239    -0.7412466182
    6      N       1.5338650237     1.4388857168    -0.7640305060
    7      H       3.1275152602     0.0252132625    -0.3719666269
    8      H       1.2076095012    -1.7929005920     0.1125267451
    9      H      -0.7677000351    -0.5129777878    -1.2475547067
   10      H      -2.3176752535     0.1361271993     0.6580895856
   11      H      -0.4048591685     2.1598828596    -0.9650602813
   12      C      -2.0304273233    -1.0464797938     1.1470615255
   13      H      -2.5548231675    -1.0108444129     2.1119929012
 ----------------------------------------------------------------

    2    -286.7921250883      1.78E-09 Convergence criterion met
 Total energy in the final basis set = -286.79212509

                    Orbital Energies (a.u.)
 --------------------------------------------------------------

 Alpha MOs
 -- Occupied --
-14.350 -10.256 -10.244 -10.240 -10.237 -10.229 -10.212  -0.969
 -0.861  -0.781  -0.738  -0.609  -0.569  -0.553  -0.516  -0.490
 -0.436  -0.425  -0.405  -0.383  -0.371  -0.343  -0.283  -0.260
 -0.196

 Beta MOs
 -- Occupied --
-14.350 -10.248 -10.244 -10.235 -10.234 -10.229 -10.212  -0.969
 -0.849  -0.779  -0.736  -0.604  -0.569  -0.546  -0.511  -0.481
 -0.433  -0.422  -0.401  -0.380  -0.365  -0.302  -0.278  -0.259

          Ground-State Mulliken Net Atomic Charges

     Atom                 Charge (a.u.)    Spin (a.u.)
  --------------------------------------------------------
      1 C                    -0.122481      -0.027595
      2 C                    -0.060170      -0.007229
      3 C                     0.021200      -0.116262
      4 C                    -0.120755       0.562402
      5 C                     0.014009      -0.112397
      6 N                    -0.198481       0.010421
      7 H                     0.136437      -0.000041
      8 H                     0.147727      -0.000301
      9 H                     0.189905       0.028933
     10 H                     0.154252      -0.003174
     11 H                     0.139082      -0.000035
     12 C                    -0.468819       0.623069
     13 H                     0.168093       0.042208
  --------------------------------------------------------
  Sum of atomic charges =    -0.000000

                    Cartesian Multipole Moments
 -----------------------------------------------------------------
    Charge (ESU x 10^10)
                -0.0000
    Dipole Moment (Debye)
         X      -1.6137      Y      -0.9673      Z       0.0859
       Tot       1.8834
    Quadrupole Moments (Debye-Ang)
        XX     -40.4190     XY      -7.4826     YY     -46.7374
        XZ       0.3513     YZ      -0.2651     ZZ     -43.3673

 Frequency:      -935.87                  98.35                 131.77
 Force Cnst:      0.6731                 0.0240                 0.0463
 Red. Mass:       1.3044                 4.2112                 4.5268
 IR Intens:      104.257                  4.285                  1.766
 Frequency:       265.27                 396.19                 485.81
 Force Cnst:      0.1058                 0.4070                 0.4349
 Red. Mass:       2.5511                 4.4009                 3.1276
 IR Intens:        7.044                 41.393                 15.481
 Frequency:       572.83                 698.37                 744.57
 Force Cnst:      0.5642                 0.4316                 0.4728
 Red. Mass:       2.9184                 1.5020                 1.4475
 IR Intens:       12.747                 12.940                 41.557
 Frequency:       789.94                 839.86                 886.72
 Force Cnst:      0.5541                 2.4347                 0.9531
 Red. Mass:       1.5071                 5.8585                 2.0575
 IR Intens:       22.518                  1.582                 32.867
 Frequency:       906.42                 958.36                 970.04
 Force Cnst:      0.9817                 0.7586                 0.9307
 Red. Mass:       2.0280                 1.4018                 1.6786
 IR Intens:       30.177                  8.425                 48.822
 Frequency:      1019.06                1026.06                1066.60
 Force Cnst:      1.4714                 1.1998                 2.1647
 Red. Mass:       2.4048                 1.9342                 3.2295
 IR Intens:        4.201                  7.842                  3.726
 Frequency:      1138.17                1195.86                1224.50
 Force Cnst:      0.9245                 1.3375                 1.3016
 Red. Mass:       1.2113                 1.5874                 1.4734
 IR Intens:        7.284                  0.876                  9.764
 Frequency:      1265.85                1300.25                1359.57
 Force Cnst:      1.1431                 1.3503                 1.8428
 Red. Mass:       1.2108                 1.3556                 1.6921
 IR Intens:       43.684                  1.692                  5.676
 Frequency:      1538.85                1582.97                1647.37
 Force Cnst:     11.7654                 9.7694                10.4302
 Red. Mass:       8.4327                 6.6172                 6.5232
 IR Intens:       40.161                  3.391                 26.181
 Frequency:      2217.73                2979.98                3052.50
 Force Cnst:      3.0703                 5.6573                 5.9786
 Red. Mass:       1.0595                 1.0813                 1.0890
 IR Intens:        4.666                  9.961                 17.414
 Frequency:      3186.69                3231.39                3261.01
 Force Cnst:      6.5440                 6.7033                 6.9194
 Red. Mass:       1.0937                 1.0896                 1.1044
 IR Intens:        7.700                  5.239                  3.971

 STANDARD THERMODYNAMIC QUANTITIES AT   298.15 K  AND     1.00 ATM

   This Molecule has  1 Imaginary Frequencies
   Zero point vibrational energy:       60.098 kcal/mol

   Atom    1 Element C  Has Mass   12.00000
   Atom    2 Element C  Has Mass   12.00000
   Atom    3 Element C  Has Mass   12.00000
   Atom    4 Element C  Has Mass   12.00000
   Atom    5 Element C  Has Mass   12.00000
   Atom    6 Element N  Has Mass   14.00307
   Atom    7 Element H  Has Mass    1.00783
   Atom    8 Element H  Has Mass    1.00783
   Atom    9 Element H  Has Mass    1.00783
   Atom   10 Element H  Has Mass    1.00783
   Atom   11 Element H  Has Mass    1.00783
   Atom   12 Element C  Has Mass   12.00000
   Atom   13 Element H  Has Mass    1.00783
   Molecular Mass:    92.050050 amu
   Principal axes and moments of inertia in amu*Bohr^2:
                             1           2           3
    Eigenvalues --      243.25096   902.81503  1076.27002
          X               0.83054    -0.48849     0.26757
          Y               0.37816     0.84727     0.37300
          Z              -0.40891    -0.20861     0.88841
   Rotational Symmetry Number is   1
   The Molecule is an Asymmetric Top
   Translational Enthalpy:        0.889 kcal/mol
   Rotational Enthalpy:           0.889 kcal/mol
   Vibrational Enthalpy:         62.198 kcal/mol
   gas constant (RT):             0.592 kcal/mol
   Translational Entropy:        39.471  cal/mol.K
   Rotational Entropy:           26.960  cal/mol.K
   Vibrational Entropy:          12.142  cal/mol.K

   Total Enthalpy:               64.568 kcal/mol
   Total Entropy:                78.573  cal/mol.K

 Total job time:  521.34s(wall), 516.91s(cpu)
        *  Thank you very much for using Q-Chem.  Have a nice day.  *
