 Q-Chem 5.0, Q-Chem, Inc., Pleasanton, CA (2017)
 Q-Chem 5.0.2 for Intel X86 EM64T Linux

User input:
--------------------------------------------------------------
$molecule
0 2
C        1.6673851774    0.2388028377   -2.2478310970
C        1.1912742399   -1.0232079390   -2.1757510783
C       -0.1377614598   -1.2514248597   -2.3847390203
C       -1.4357037666    0.4300900596   -0.6938140096
C       -0.8734492289    0.9378618231   -1.9886648193
N        0.8982601130    1.4266734893   -2.7275716154
H        2.6794492976    0.1042152354   -1.8721750854
H        1.7815874729   -1.7052298026   -1.5603347859
H       -0.7744641315   -1.7959529091   -3.1618115797
H       -1.7809589359    0.9624184188    0.2466247377
H       -1.4381541523    1.5474150056   -2.7404365407
C       -1.3756383870   -0.8460011898   -1.0656212149
H       -1.7691490608   -1.5234427430   -0.4017050979
$end

$rem
method                b3lyp
basis                 6-31g(d)
unrestricted          true
symmetry              off
sym_ignore            true
incdft                false
incfock               0
scf_convergence       8
thresh                14
jobtype               opt
scf_guess             read
scf_algorithm         diis
max_scf_cycles        100
geom_opt_tol_gradient 600
geom_opt_tol_displacement 2400
geom_opt_tol_energy   200
geom_opt_max_cycles   100
$end

--------------------------------------------------------------

    2    -286.6022567870      6.31E-09 Convergence criterion met
 Total energy in the final basis set = -286.60225679
   21    -286.6914074597      2.38E-09 Convergence criterion met
 Total energy in the final basis set = -286.69140746
   20    -286.7681551986      2.59E-09 Convergence criterion met
 Total energy in the final basis set = -286.76815520
   17    -286.8098455963      7.38E-09 Convergence criterion met
 Total energy in the final basis set = -286.80984560
   16    -286.8357418562      9.18E-09 Convergence criterion met
 Total energy in the final basis set = -286.83574186
   16    -286.8572622799      6.09E-09 Convergence criterion met
 Total energy in the final basis set = -286.85726228
   16    -286.8553248838      9.72E-09 Convergence criterion met
 Total energy in the final basis set = -286.85532488
   15    -286.8682778923      9.66E-09 Convergence criterion met
   14    -286.8754480708      6.64E-09 Convergence criterion met
 Total energy in the final basis set = -286.87544807
   13    -286.8752786285      6.82E-09 Convergence criterion met
 Total energy in the final basis set = -286.87527863
   13    -286.8754938175      4.52E-09 Convergence criterion met
 Total energy in the final basis set = -286.87549382
   11    -286.8754966574      9.31E-09 Convergence criterion met
 Total energy in the final basis set = -286.87549666
   11    -286.8754995826      7.12E-09 Convergence criterion met
 Total energy in the final basis set = -286.87549958
   10    -286.8755003982      8.00E-09 Convergence criterion met
 Total energy in the final basis set = -286.87550040

             Standard Nuclear Orientation (Angstroms)
    I     Atom           X                Y                Z
 ----------------------------------------------------------------
    1      C       1.5936797696     0.2623691000    -1.9951682913
    2      C       1.0524876239    -1.0284782474    -2.1030365162
    3      C      -0.4305437568    -0.9033924565    -2.2282590132
    4      C      -1.3614598799     0.4486771499    -0.8836934692
    5      C      -0.5952424401     0.6677309201    -2.1881864383
    6      N       0.7260595644     1.2680541529    -2.0374118490
    7      H       2.6527200279     0.4764579676    -1.8576126473
    8      H       1.6143290426    -1.9549688302    -2.0561861348
    9      H      -0.8747691619    -1.4645096130    -3.0606947088
   10      H      -1.7998774057     1.1531548661    -0.1833347676
   11      H      -1.1541547808     1.1469137829    -3.0012590994
   12      C      -1.2365600861    -0.8824864836    -0.9185137473
   13      H      -1.5539913390    -1.6873048825    -0.2604745243
 ----------------------------------------------------------------

   10    -286.8755009320      3.59E-09 Convergence criterion met
 Total energy in the final basis set = -286.87550093
 Final energy is   -286.875500931963
 **  OPTIMIZATION CONVERGED  **

                    Orbital Energies (a.u.)
 --------------------------------------------------------------

 Alpha MOs
 -- Occupied --
-14.328 -10.217 -10.216 -10.207 -10.203 -10.200 -10.195  -0.944
 -0.837  -0.752  -0.665  -0.618  -0.554  -0.523  -0.515  -0.481
 -0.428  -0.403  -0.386  -0.355  -0.341  -0.322  -0.270  -0.253
 -0.203

 Beta MOs
 -- Occupied --
-14.318 -10.219 -10.218 -10.203 -10.199 -10.198 -10.194  -0.932
 -0.831  -0.734  -0.665  -0.610  -0.549  -0.520  -0.512  -0.475
 -0.420  -0.396  -0.381  -0.343  -0.334  -0.301  -0.264  -0.246

          Ground-State Mulliken Net Atomic Charges

     Atom                 Charge (a.u.)    Spin (a.u.)
  --------------------------------------------------------
      1 C                     0.048301      -0.230673
      2 C                    -0.114883       0.693750
      3 C                    -0.193805      -0.053953
      4 C                    -0.075684       0.032616
      5 C                    -0.061911      -0.027731
      6 N                    -0.351280       0.516407
      7 H                     0.140544       0.007431
      8 H                     0.143393      -0.032175
      9 H                     0.148167       0.025170
     10 H                     0.137405       0.003587
     11 H                     0.151439       0.025239
     12 C                    -0.105014       0.033468
     13 H                     0.133329       0.006865
  --------------------------------------------------------
  Sum of atomic charges =     0.000000

                    Cartesian Multipole Moments
 -----------------------------------------------------------------
    Charge (ESU x 10^10)
                 0.0000
    Dipole Moment (Debye)
         X      -0.4840      Y      -2.0965      Z       0.0483
       Tot       2.1522
    Quadrupole Moments (Debye-Ang)
        XX     -37.8697     XY      -2.5707     YY     -41.7208
        XZ       0.4751     YZ       4.1342     ZZ     -40.0855

 Total job time:  689.31s(wall), 981.99s(cpu)
        *  Thank you very much for using Q-Chem.  Have a nice day.  *
