 Q-Chem 5.0, Q-Chem, Inc., Pleasanton, CA (2017)
 Q-Chem 5.0.2 for Intel X86 EM64T Linux

User input:
--------------------------------------------------------------
$molecule
0 2
C        2.1448657396    0.3683439442   -0.4546442710
C        1.4750962977   -0.9137759582   -0.6377605780
C        0.2354950361   -0.6024355752   -1.1121260746
C       -1.8007320468    0.3074743493    1.8601662331
C        0.2135051796    0.8573614930   -1.1984842567
N        1.3677856472    1.4182030469   -0.7937685490
H        3.1556884129    0.5225250850   -0.0904554491
H        1.8917151188   -1.8905675826   -0.4260961439
H       -0.5786237254   -1.2689341581   -1.3665670360
H       -0.8775796714    0.8359328520    1.7768855070
H       -0.6153539915    1.4700546155   -1.5411362974
C       -2.8431615208   -0.2907823860    1.9488435563
H       -3.7687004759   -0.8133997258    2.0351433594
$end

$rem
method                b3lyp
basis                 6-31g(d)
unrestricted          true
symmetry              off
sym_ignore            true
incdft                false
incfock               0
scf_convergence       8
thresh                14
jobtype               opt
scf_guess             read
scf_algorithm         diis
max_scf_cycles        100
geom_opt_tol_gradient 600
geom_opt_tol_displacement 2400
geom_opt_tol_energy   200
geom_opt_max_cycles   100
$end

--------------------------------------------------------------

    2    -286.8375707301      2.76E-09 Convergence criterion met
 Total energy in the final basis set = -286.83757073
   12    -286.8375806352      9.46E-09 Convergence criterion met
 Total energy in the final basis set = -286.83758064
   14    -286.8376010728      3.06E-09 Convergence criterion met
 Total energy in the final basis set = -286.83760107
   14    -286.8376390868      4.77E-09 Convergence criterion met
 Total energy in the final basis set = -286.83763909
   14    -286.8376962516      7.62E-09 Convergence criterion met
 Total energy in the final basis set = -286.83769625
   15    -286.8377650647      4.15E-09 Convergence criterion met
 Total energy in the final basis set = -286.83776506
   15    -286.8378527202      4.64E-09 Convergence criterion met
 Total energy in the final basis set = -286.83785272
   13    -286.8379609814      5.95E-09 Convergence criterion met
   14    -286.8437731986      2.86E-09 Convergence criterion met
 Total energy in the final basis set = -286.84377320
   14    -286.8437770021      3.12E-09 Convergence criterion met
 Total energy in the final basis set = -286.84377700
   12    -286.8437806603      5.52E-09 Convergence criterion met
 Total energy in the final basis set = -286.84378066
   12    -286.8437840689      5.17E-09 Convergence criterion met
 Total energy in the final basis set = -286.84378407
   12    -286.8437869465      5.56E-09 Convergence criterion met
 Total energy in the final basis set = -286.84378695
   13    -286.8437898165      4.10E-09 Convergence criterion met
 Total energy in the final basis set = -286.84378982

             Standard Nuclear Orientation (Angstroms)
    I     Atom           X                Y                Z
 ----------------------------------------------------------------
    1      C       1.4402998639    -0.2618027908     0.0520932722
    2      C       2.1367581357    -0.5638275090    -1.1925427098
    3      C       1.1839262893    -0.4877601239    -2.1648781381
    4      C      -2.1386797406     0.6769752374     2.1439829152
    5      C      -0.0493495944    -0.1415385367    -1.4681082080
    6      N       0.1301762966    -0.0124842147    -0.1389716344
    7      H       1.8755424379    -0.2305481668     1.0460417918
    8      H       3.1892014428    -0.7956195223    -1.2943537781
    9      H       1.2929311606    -0.6446938861    -3.2301143993
   10      H      -1.4090952362     0.4721441988     1.3786031979
   11      H      -1.0283488994     0.0075066595    -1.9129085102
   12      C      -2.9522202522     0.8939520880     3.0086760930
   13      H      -3.6711419039     1.0876965666     3.7724801078
 ----------------------------------------------------------------

   13    -286.8437913891      5.50E-09 Convergence criterion met
 Total energy in the final basis set = -286.84379139
 Final energy is   -286.843791389087
 **  OPTIMIZATION CONVERGED  **

                    Orbital Energies (a.u.)
 --------------------------------------------------------------

 Alpha MOs
 -- Occupied --
-14.332 -10.253 -10.253 -10.211 -10.210 -10.165 -10.161  -0.972
 -0.781  -0.735  -0.716  -0.582  -0.576  -0.539  -0.529  -0.462
 -0.429  -0.423  -0.416  -0.403  -0.286  -0.264  -0.257  -0.256
 -0.253

 Beta MOs
 -- Occupied --
-14.334 -10.246 -10.245 -10.210 -10.209 -10.165 -10.161  -0.965
 -0.778  -0.716  -0.713  -0.576  -0.565  -0.539  -0.527  -0.462
 -0.426  -0.413  -0.397  -0.392  -0.287  -0.261  -0.257  -0.256

          Ground-State Mulliken Net Atomic Charges

     Atom                 Charge (a.u.)    Spin (a.u.)
  --------------------------------------------------------
      1 C                     0.072619       0.533961
      2 C                    -0.156002       0.081041
      3 C                    -0.155424       0.081639
      4 C                    -0.103774      -0.000164
      5 C                     0.071772       0.534006
      6 N                    -0.413573      -0.167737
      7 H                     0.163774      -0.026188
      8 H                     0.152592      -0.005850
      9 H                     0.152491      -0.005863
     10 H                     0.230104       0.001445
     11 H                     0.163593      -0.026224
     12 C                    -0.351344      -0.000082
     13 H                     0.173172       0.000017
  --------------------------------------------------------
  Sum of atomic charges =    -0.000000

                    Cartesian Multipole Moments
 -----------------------------------------------------------------
    Charge (ESU x 10^10)
                 0.0000
    Dipole Moment (Debye)
         X       2.1895      Y      -0.7172      Z      -2.1949
       Tot       3.1821
    Quadrupole Moments (Debye-Ang)
        XX     -35.9642     XY      -1.3876     YY     -43.2280
        XZ      -0.0346     YZ       0.8074     ZZ     -35.4514

 Total job time:  1628.48s(wall), 2203.87s(cpu)
        *  Thank you very much for using Q-Chem.  Have a nice day.  *
