 Q-Chem 5.0, Q-Chem, Inc., Pleasanton, CA (2017)
 Q-Chem 5.0.2 for Intel X86 EM64T Linux

User input:
--------------------------------------------------------------
$molecule
0 2
C        1.5328754608    0.4096670142   -0.3168914923
C        0.7919222248   -0.8485990615   -0.0437595179
C       -0.5516166944   -0.6785126703   -0.6564151296
C       -0.9825518773    0.7087015636    0.8781937955
C       -0.6149064746    0.8990441927   -0.5862267977
N        0.7844496346    1.3961598710   -0.6599305891
H        2.6096324999    0.5209991282   -0.2045533170
H        1.2718413871   -1.8202491592    0.0205550756
H       -1.0706795854   -1.3566236970   -1.3252729217
H       -1.2585080538    1.4078081248    1.6595145117
H       -1.2851751037    1.4641361717   -1.2345277820
C       -0.5205555972   -0.6721720868    0.8765478931
H       -0.7333045762   -1.4673261090    1.5823869392
$end

$rem
method                b3lyp
basis                 6-31+g(d,p)
unrestricted          true
symmetry              off
sym_ignore            true
incdft                false
incfock               0
scf_convergence       8
thresh                14
jobtype               opt
scf_guess             read
scf_algorithm         diis
max_scf_cycles        100
geom_opt_max_cycles   300
$end

--------------------------------------------------------------

   16    -286.8599187666      4.21E-09 Convergence criterion met
 Total energy in the final basis set = -286.85991877
   13    -286.8600690084      5.47E-09 Convergence criterion met
 Total energy in the final basis set = -286.86006901
   12    -286.8602026488      4.95E-09 Convergence criterion met
 Total energy in the final basis set = -286.86020265
   11    -286.8602799627      6.29E-09 Convergence criterion met
 Total energy in the final basis set = -286.86027996
   10    -286.8602904384      8.24E-09 Convergence criterion met
 Total energy in the final basis set = -286.86029044
    9    -286.8602917680      7.50E-09 Convergence criterion met
 Total energy in the final basis set = -286.86029177

             Standard Nuclear Orientation (Angstroms)
    I     Atom           X                Y                Z
 ----------------------------------------------------------------
    1      C       1.5158736829     0.4207022068    -0.3001460840
    2      C       0.7839935256    -0.8459696003    -0.0386925848
    3      C      -0.5564436763    -0.6875829858    -0.6650613131
    4      C      -0.9916545173     0.7053119878     0.8736927836
    5      C      -0.6305532934     0.8882644466    -0.5955597332
    6      N       0.7632973482     1.3997077168    -0.6568587492
    7      H       2.5887281964     0.5464880859    -0.1661918076
    8      H       1.2735078046    -1.8119078530     0.0319456122
    9      H      -1.0511797754    -1.3707531220    -1.3477726527
   10      H      -1.1164852263     1.4346968027     1.6686536037
   11      H      -1.3055497556     1.4454440884    -1.2458299391
   12      C      -0.5425538405    -0.6822921712     0.8639517905
   13      H      -0.7575572281    -1.4790763204     1.5674897416
 ----------------------------------------------------------------

    8    -286.8602918839      7.15E-09 Convergence criterion met
 Total energy in the final basis set = -286.86029188
 Final energy is   -286.860291883899
 **  OPTIMIZATION CONVERGED  **

                    Orbital Energies (a.u.)
 --------------------------------------------------------------

 Alpha MOs
 -- Occupied --
-14.332 -10.230 -10.230 -10.224 -10.222 -10.219 -10.211  -0.974
 -0.866  -0.757  -0.667  -0.618  -0.581  -0.544  -0.528  -0.473
 -0.441  -0.421  -0.398  -0.371  -0.347  -0.314  -0.274  -0.269
 -0.196

 Beta MOs
 -- Occupied --
-14.331 -10.231 -10.230 -10.225 -10.220 -10.217 -10.199  -0.970
 -0.862  -0.747  -0.657  -0.612  -0.577  -0.542  -0.518  -0.470
 -0.435  -0.416  -0.394  -0.367  -0.335  -0.305  -0.269  -0.266

          Ground-State Mulliken Net Atomic Charges

     Atom                 Charge (a.u.)    Spin (a.u.)
  --------------------------------------------------------
      1 C                    -0.097426       0.044407
      2 C                    -0.093728       0.113823
      3 C                    -0.125904       0.059726
      4 C                    -0.071657       1.021611
      5 C                    -0.075578      -0.123358
      6 N                    -0.210043       0.028525
      7 H                     0.132511       0.004397
      8 H                     0.138056       0.001088
      9 H                     0.132574      -0.000566
     10 H                     0.130144      -0.023054
     11 H                     0.135715       0.019281
     12 C                    -0.135286      -0.150689
     13 H                     0.140620       0.004810
  --------------------------------------------------------
  Sum of atomic charges =     0.000000

                    Cartesian Multipole Moments
 -----------------------------------------------------------------
    Charge (ESU x 10^10)
                 0.0000
    Dipole Moment (Debye)
         X      -0.3728      Y      -2.6278      Z       0.6087
       Tot       2.7230
    Quadrupole Moments (Debye-Ang)
        XX     -40.1197     XY      -2.9475     YY     -43.6847
        XZ       1.7391     YZ       1.6695     ZZ     -41.3228

 Total job time:  136.90s(wall), 527.47s(cpu)
        *  Thank you very much for using Q-Chem.  Have a nice day.  *
