 Q-Chem 5.0, Q-Chem, Inc., Pleasanton, CA (2017)
 Q-Chem 5.0.2 for Intel X86 EM64T Linux

User input:
--------------------------------------------------------------
$molecule
0 2
C        1.5165408880    0.4236472297   -0.3061042956
C        0.7854880467   -0.8433872844   -0.0438944335
C       -0.5580410750   -0.6829907635   -0.6629171117
C       -0.9846718698    0.7065657501    0.8811113531
C       -0.6310384912    0.8926968072   -0.5894862516
N        0.7627133630    1.4038763884   -0.6567708465
H        2.5901454308    0.5487085279   -0.1776660104
H        1.2750052430   -1.8096669870    0.0218846419
H       -1.0564846712   -1.3644481130   -1.3446515964
H       -1.1061426852    1.4339283286    1.6784818414
H       -1.3089772932    1.4516506252   -1.2351377615
C       -0.5364109292   -0.6811960569    0.8661071548
H       -0.7481259568   -1.4793844523    1.5690433160
$end

$rem
method                b3lyp
basis                 6-31+g(d,p)
unrestricted          true
symmetry              off
sym_ignore            true
incdft                false
incfock               0
scf_convergence       8
thresh                14
jobtype               sp
scf_guess             core
scf_guess_mix         5
scf_algorithm         diis
max_scf_cycles        100
$end

--------------------------------------------------------------

             Standard Nuclear Orientation (Angstroms)
    I     Atom           X                Y                Z
 ----------------------------------------------------------------
    1      C       1.5165408880     0.4236472297    -0.3061042956
    2      C       0.7854880467    -0.8433872844    -0.0438944335
    3      C      -0.5580410750    -0.6829907635    -0.6629171117
    4      C      -0.9846718698     0.7065657501     0.8811113531
    5      C      -0.6310384912     0.8926968072    -0.5894862516
    6      N       0.7627133630     1.4038763884    -0.6567708465
    7      H       2.5901454308     0.5487085279    -0.1776660104
    8      H       1.2750052430    -1.8096669870     0.0218846419
    9      H      -1.0564846712    -1.3644481130    -1.3446515964
   10      H      -1.1061426852     1.4339283286     1.6784818414
   11      H      -1.3089772932     1.4516506252    -1.2351377615
   12      C      -0.5364109292    -0.6811960569     0.8661071548
   13      H      -0.7481259568    -1.4793844523     1.5690433160
 ----------------------------------------------------------------

   23    -286.8602908269      3.90E-09 Convergence criterion met
 Total energy in the final basis set = -286.86029083

                    Orbital Energies (a.u.)
 --------------------------------------------------------------

 Alpha MOs
 -- Occupied --
-14.332 -10.230 -10.230 -10.224 -10.222 -10.219 -10.211  -0.974
 -0.866  -0.757  -0.667  -0.618  -0.581  -0.544  -0.528  -0.473
 -0.441  -0.421  -0.398  -0.371  -0.347  -0.314  -0.274  -0.269
 -0.196

 Beta MOs
 -- Occupied --
-14.331 -10.231 -10.230 -10.225 -10.220 -10.217 -10.199  -0.970
 -0.862  -0.747  -0.657  -0.612  -0.577  -0.542  -0.518  -0.470
 -0.435  -0.416  -0.394  -0.367  -0.335  -0.305  -0.269  -0.266

          Ground-State Mulliken Net Atomic Charges

     Atom                 Charge (a.u.)    Spin (a.u.)
  --------------------------------------------------------
      1 C                    -0.097438       0.044397
      2 C                    -0.093633       0.113870
      3 C                    -0.125728       0.059853
      4 C                    -0.071616       1.021581
      5 C                    -0.075682      -0.123428
      6 N                    -0.209971       0.028549
      7 H                     0.132490       0.004395
      8 H                     0.138054       0.001087
      9 H                     0.132588      -0.000561
     10 H                     0.130149      -0.023099
     11 H                     0.135705       0.019284
     12 C                    -0.135544      -0.150736
     13 H                     0.140624       0.004806
  --------------------------------------------------------
  Sum of atomic charges =    -0.000000

                    Cartesian Multipole Moments
 -----------------------------------------------------------------
    Charge (ESU x 10^10)
                 0.0000
    Dipole Moment (Debye)
         X      -0.3718      Y      -2.6296      Z       0.6043
       Tot       2.7237
    Quadrupole Moments (Debye-Ang)
        XX     -40.1064     XY      -2.9515     YY     -43.7054
        XZ       1.7250     YZ       1.6779     ZZ     -41.3305

 Total job time:  29.59s(wall), 116.17s(cpu)
        *  Thank you very much for using Q-Chem.  Have a nice day.  *
