 Q-Chem 5.0, Q-Chem, Inc., Pleasanton, CA (2017)
 Q-Chem 5.0.2 for Intel X86 EM64T Linux

User input:
--------------------------------------------------------------
$molecule
0 2
C        1.5192584318    0.3412276347   -0.2825837968
C        0.6229295998   -0.8943602707   -0.0663378296
C       -0.4105324038   -0.5257739640   -1.1356944108
C       -0.9929659704    0.5160844396    0.8185099267
C       -0.5930349016    0.8948047147   -0.6172779820
N        0.8462185625    1.3819185069   -0.5924417704
H        2.6008888934    0.3566521624   -0.1667305751
H        1.1023308562   -1.8724290725   -0.0800316544
H       -1.2342361998   -1.1816393832   -1.4113826804
H       -1.7117138502    1.0528918285    1.4270845980
H       -1.2440695778    1.5890037187   -1.1443219302
C       -0.2592522142   -0.5602814427    1.1550791943
H       -0.2458212257   -1.0980988721    2.0961289112
$end

$rem
method                b3lyp
basis                 6-31+g(d,p)
unrestricted          true
symmetry              off
sym_ignore            true
incdft                false
incfock               0
scf_convergence       8
thresh                14
jobtype               sp
scf_guess             read
scf_algorithm         diis
max_scf_cycles        100
scf_final_print       1
$end

--------------------------------------------------------------

             Standard Nuclear Orientation (Angstroms)
    I     Atom           X                Y                Z
 ----------------------------------------------------------------
    1      C       1.5192584318     0.3412276347    -0.2825837968
    2      C       0.6229295998    -0.8943602707    -0.0663378296
    3      C      -0.4105324038    -0.5257739640    -1.1356944108
    4      C      -0.9929659704     0.5160844396     0.8185099267
    5      C      -0.5930349016     0.8948047147    -0.6172779820
    6      N       0.8462185625     1.3819185069    -0.5924417704
    7      H       2.6008888934     0.3566521624    -0.1667305751
    8      H       1.1023308562    -1.8724290725    -0.0800316544
    9      H      -1.2342361998    -1.1816393832    -1.4113826804
   10      H      -1.7117138502     1.0528918285     1.4270845980
   11      H      -1.2440695778     1.5890037187    -1.1443219302
   12      C      -0.2592522142    -0.5602814427     1.1550791943
   13      H      -0.2458212257    -1.0980988721     2.0961289112
 ----------------------------------------------------------------

    2    -286.8734900390      1.35E-09 Convergence criterion met
 Total energy in the final basis set = -286.87349004

                    Orbital Energies (a.u.)
 --------------------------------------------------------------

 Alpha MOs
 -- Occupied --
-14.337 -10.234 -10.231 -10.221 -10.216 -10.213 -10.209  -0.965
 -0.833  -0.737  -0.715  -0.589  -0.583  -0.539  -0.520  -0.481
 -0.429  -0.420  -0.391  -0.383  -0.358  -0.305  -0.283  -0.271
 -0.206

 Beta MOs
 -- Occupied --
-14.336 -10.235 -10.231 -10.221 -10.211 -10.208 -10.202  -0.961
 -0.827  -0.735  -0.700  -0.587  -0.571  -0.536  -0.517  -0.472
 -0.425  -0.416  -0.389  -0.379  -0.352  -0.298  -0.273  -0.268

          Ground-State Mulliken Net Atomic Charges

     Atom                 Charge (a.u.)    Spin (a.u.)
  --------------------------------------------------------
      1 C                    -0.092001      -0.030999
      2 C                     0.008959      -0.061165
      3 C                    -0.271314       1.034455
      4 C                    -0.146978       0.047300
      5 C                     0.023949      -0.089747
      6 N                    -0.202904       0.025179
      7 H                     0.137330      -0.000121
      8 H                     0.124727       0.003485
      9 H                     0.138908      -0.026155
     10 H                     0.138862       0.000659
     11 H                     0.129395       0.003592
     12 C                    -0.127464       0.093332
     13 H                     0.138532       0.000185
  --------------------------------------------------------
  Sum of atomic charges =    -0.000000

                    Cartesian Multipole Moments
 -----------------------------------------------------------------
    Charge (ESU x 10^10)
                -0.0000
    Dipole Moment (Debye)
         X      -0.7397      Y      -2.1269      Z       1.2840
       Tot       2.5922
    Quadrupole Moments (Debye-Ang)
        XX     -38.4644     XY      -4.5710     YY     -44.4134
        XZ       1.3447     YZ       0.6874     ZZ     -42.5998

 Total job time:  3.76s(wall), 11.74s(cpu)
        *  Thank you very much for using Q-Chem.  Have a nice day.  *
