 Q-Chem 5.0, Q-Chem, Inc., Pleasanton, CA (2017)
 Q-Chem 5.0.2 for Intel X86 EM64T Linux

User input:
--------------------------------------------------------------
$molecule
0 2
C        1.5196817895    0.3440739078   -0.2649461972
C        0.6224748319   -0.8939218341   -0.0647136388
C       -0.3953703744   -0.5206731519   -1.1472882853
C       -1.0023286462    0.5091940545    0.8086810719
C       -0.5861713701    0.8954094682   -0.6198733192
N        0.8530895815    1.3865087220   -0.5766345126
H        2.6004622616    0.3578332345   -0.1344527725
H        1.1022922546   -1.8726626952   -0.0767669264
H       -1.2213134024   -1.1742516430   -1.4232003148
H       -1.7271370039    1.0439991456    1.4125314193
H       -1.2321738086    1.5929355166   -1.1508801546
C       -0.2722119407   -0.5659090966    1.1475628476
H       -0.2612941731   -1.1025356283    2.0899807822
****
C        1.6625145202    0.3780786737   -0.4999414768
C        1.0773922284   -0.8968092175   -0.4474339995
C       -0.4043559368   -0.7270834765   -0.3779216456
C       -1.1101707328    0.7373958088    0.9856622282
C       -0.5207069270    0.8483941951   -0.4208750684
N        0.8245718640    1.4095548893   -0.4891427507
H        2.7356625554    0.5624514373   -0.5242961413
H        1.6150004589   -1.8382452129   -0.4189991135
H       -0.9739436701   -1.3218554543   -1.1040162040
H       -1.4331179720    1.4985281284    1.6896221245
H       -1.1715747909    1.2951713405   -1.1823338388
C       -1.0261051937   -0.5968425697    1.0226222583
H       -1.2751664037   -1.3487385421    1.7670536275
$end

$rem
method                b3lyp
basis                 6-31g(d)
unrestricted          true
symmetry              off
sym_ignore            true
incdft                false
incfock               0
scf_convergence       8
thresh                14
jobtype               fsm
scf_guess             core
scf_guess_mix         5
scf_algorithm         diis
max_scf_cycles        100
fsm_nnode             21
fsm_ngrad             6
fsm_mode              2
fsm_opt_mode          2
$end

--------------------------------------------------------------

   21    -286.8516365108      6.29E-09 Convergence criterion met
 Total energy in the final basis set = -286.85163651
   22    -286.8755090795      8.45E-09 Convergence criterion met
 Total energy in the final basis set = -286.87550908
   20    -286.8498882932      9.02E-09 Convergence criterion met
 Total energy in the final basis set = -286.84988829
   21    -286.8504447866      2.46E-09 Convergence criterion met
 Total energy in the final basis set = -286.85044479
   22    -286.8741295902      2.67E-09 Convergence criterion met
 Total energy in the final basis set = -286.87412959
   22    -286.8745975823      4.61E-09 Convergence criterion met
 Total energy in the final basis set = -286.87459758
   21    -286.8477198633      3.12E-09 Convergence criterion met
 Total energy in the final basis set = -286.84771986
   20    -286.8487046070      9.85E-09 Convergence criterion met
 Total energy in the final basis set = -286.80421671
   24    -286.8050248273      4.73E-09 Convergence criterion met
 Total energy in the final basis set = -286.80502483
   24    -286.8043082930      5.91E-09 Convergence criterion met
 Total energy in the final basis set = -286.80430829
   24    -286.8049417324      4.63E-09 Convergence criterion met
 Total energy in the final basis set = -286.80494173
   24    -286.8043846752      5.96E-09 Convergence criterion met
 Total energy in the final basis set = -286.80438468
   24    -286.8048716310      4.59E-09 Convergence criterion met
 Total energy in the final basis set = -286.80487163
   24    -286.8044268751      5.99E-09 Convergence criterion met
 Total energy in the final basis set = -286.80442688
   24    -286.8048338579      4.59E-09 Convergence criterion met
 Total energy in the final basis set = -286.80483386

                    Orbital Energies (a.u.)
 --------------------------------------------------------------

 Alpha MOs
 -- Occupied --
-14.319 -10.232 -10.226 -10.220 -10.220 -10.201 -10.197  -0.948
 -0.824  -0.737  -0.684  -0.590  -0.567  -0.526  -0.517  -0.466
 -0.419  -0.408  -0.396  -0.369  -0.338  -0.300  -0.272  -0.251
 -0.146

 Beta MOs
 -- Occupied --
-14.318 -10.234 -10.225 -10.221 -10.219 -10.190 -10.190  -0.945
 -0.817  -0.730  -0.677  -0.585  -0.558  -0.525  -0.510  -0.459
 -0.413  -0.404  -0.393  -0.366  -0.330  -0.283  -0.267  -0.247

          Ground-State Mulliken Net Atomic Charges

     Atom                 Charge (a.u.)    Spin (a.u.)
  --------------------------------------------------------
      1 C                     0.098173       0.037030
      2 C                    -0.205161       0.031151
      3 C                    -0.135237       0.757337
      4 C                    -0.063445       0.474362
      5 C                    -0.093516      -0.062324
      6 N                    -0.339286       0.003184
      7 H                     0.147940       0.000123
      8 H                     0.140605       0.004530
      9 H                     0.154798      -0.034031
     10 H                     0.152733      -0.014978
     11 H                     0.143336       0.010945
     12 C                    -0.152217      -0.222762
     13 H                     0.151276       0.015436
  --------------------------------------------------------
  Sum of atomic charges =     0.000000

                    Cartesian Multipole Moments
 -----------------------------------------------------------------
    Charge (ESU x 10^10)
                 0.0000
    Dipole Moment (Debye)
         X      -0.7148      Y      -2.2259      Z       0.9984
       Tot       2.5422
    Quadrupole Moments (Debye-Ang)
        XX     -37.6927     XY      -3.1756     YY     -42.3003
        XZ       0.0509     YZ       0.7979     ZZ     -41.1518

             Standard Nuclear Orientation (Angstroms)
    I     Atom           X                Y                Z
 ----------------------------------------------------------------
    1      C       1.5451528657     0.3797937727    -0.3050659797
    2      C       0.7522862274    -0.8823811146    -0.1146952840
    3      C      -0.4455080314    -0.6042477319    -0.9495608666
    4      C      -0.9984135178     0.6186366485     0.8530114589
    5      C      -0.5791482387     0.8913142417    -0.5990489747
    6      N       0.8197136826     1.3989916924    -0.6000288805
    7      H       2.6252187558     0.4693063692    -0.1986661371
    8      H       1.2742182675    -1.8459320248    -0.1102364264
    9      H      -1.2311938869    -1.3051776769    -1.1925597491
   10      H      -1.5121278306     1.2742606474     1.5493300633
   11      H      -1.2374517861     1.5100043176    -1.2088740211
   12      C      -0.4141490716    -0.5995102572     1.0479652850
   13      H      -0.6251741927    -1.3420256101     1.8180501774
 ----------------------------------------------------------------

 Total job time:  1198.05s(wall), 4444.94s(cpu)
        *  Thank you very much for using Q-Chem.  Have a nice day.  *
