 Q-Chem 5.0, Q-Chem, Inc., Pleasanton, CA (2017)
 Q-Chem 5.0.2 for Intel X86 EM64T Linux

User input:
--------------------------------------------------------------
$molecule
0 2
C        1.5426129769    0.3719417922   -0.3260656385
C        0.7227708783   -0.8635018056   -0.0428592573
C       -0.5145468740   -0.6172926186   -0.8458735333
C       -0.9367405703    0.6657883509    0.8761559384
C       -0.5953921241    0.9073334168   -0.5902897490
N        0.8268745532    1.3796940261   -0.6655428452
H        2.6216236178    0.4414800959   -0.2056790384
H        1.1874525981   -1.8461919043   -0.0209127559
H       -1.1591154597   -1.2976074902   -1.3831832202
H       -1.5660812044    1.2259459068    1.5524036839
H       -1.2664163006    1.5283940883   -1.1806456000
C       -0.3482220496   -0.5986462361    1.0229731633
H       -0.5413967984   -1.3343043483    1.7991395179
$end

$rem
method                b3lyp
basis                 6-31+g(d,p)
unrestricted          true
symmetry              off
sym_ignore            true
incdft                false
incfock               0
scf_convergence       8
thresh                14
jobtype               rpath
scf_guess             core
scf_guess_mix         5
scf_algorithm         diis
max_scf_cycles        100
rpath_direction       1
rpath_tol_displacement 1000
rpath_max_cycles      50
geom_opt_max_cycles   300
geom_opt_hessian      read
$end

--------------------------------------------------------------

   24    -286.8438093168      5.79E-09 Convergence criterion met
 Total energy in the final basis set = -286.84380932
   23    -286.8457024347      6.74E-09 Convergence criterion met
 Total energy in the final basis set = -286.84570243
   23    -286.8456686360      6.58E-09 Convergence criterion met
 Total energy in the final basis set = -286.84566864
   23    -286.8457064796      6.62E-09 Convergence criterion met
 Total energy in the final basis set = -286.84570648
   23    -286.8496755212      9.33E-09 Convergence criterion met
 Total energy in the final basis set = -286.84967552
   23    -286.8495560371      8.91E-09 Convergence criterion met
 Total energy in the final basis set = -286.84955604
   23    -286.8496859114      9.97E-09 Convergence criterion met
 Total energy in the final basis set = -286.84968591
   23    -286.8533775484      7.56E-09 Convergence criterion met
 Total energy in the final basis set = -286.86871886
   21    -286.8734544422      5.83E-09 Convergence criterion met
 Total energy in the final basis set = -286.87345444
   21    -286.8734542461      5.93E-09 Convergence criterion met
 Total energy in the final basis set = -286.87345425
   21    -286.8734550472      5.89E-09 Convergence criterion met
 Total energy in the final basis set = -286.87345505
   21    -286.8733759036      6.05E-09 Convergence criterion met
 Total energy in the final basis set = -286.87337590
   21    -286.8734837429      6.21E-09 Convergence criterion met
 Total energy in the final basis set = -286.87348374
   22    -286.8732134051      6.99E-09 Convergence criterion met
 Total energy in the final basis set = -286.87321341
   21    -286.8734900390      5.90E-09 Convergence criterion met
 Total energy in the final basis set = -286.87349004

                    Orbital Energies (a.u.)
 --------------------------------------------------------------

 Alpha MOs
 -- Occupied --
-14.337 -10.234 -10.231 -10.221 -10.216 -10.213 -10.209  -0.965
 -0.833  -0.737  -0.715  -0.589  -0.583  -0.539  -0.520  -0.481
 -0.429  -0.420  -0.391  -0.383  -0.358  -0.305  -0.283  -0.271
 -0.206

 Beta MOs
 -- Occupied --
-14.336 -10.235 -10.231 -10.221 -10.211 -10.208 -10.202  -0.961
 -0.827  -0.735  -0.700  -0.587  -0.571  -0.536  -0.517  -0.472
 -0.425  -0.416  -0.389  -0.379  -0.352  -0.298  -0.273  -0.268

          Ground-State Mulliken Net Atomic Charges

     Atom                 Charge (a.u.)    Spin (a.u.)
  --------------------------------------------------------
      1 C                    -0.092001      -0.030994
      2 C                     0.008959      -0.061166
      3 C                    -0.271314       1.034455
      4 C                    -0.146978       0.047299
      5 C                     0.023948      -0.089747
      6 N                    -0.202904       0.025175
      7 H                     0.137330      -0.000121
      8 H                     0.124727       0.003485
      9 H                     0.138908      -0.026155
     10 H                     0.138862       0.000659
     11 H                     0.129395       0.003592
     12 C                    -0.127464       0.093332
     13 H                     0.138532       0.000185
  --------------------------------------------------------
  Sum of atomic charges =     0.000000

                    Cartesian Multipole Moments
 -----------------------------------------------------------------
    Charge (ESU x 10^10)
                 0.0000
    Dipole Moment (Debye)
         X      -0.7397      Y      -2.1269      Z       1.2840
       Tot       2.5922
    Quadrupole Moments (Debye-Ang)
        XX     -38.4614     XY      -4.5646     YY     -44.4013
        XZ       1.3427     YZ       0.6855     ZZ     -42.6019

             Standard Nuclear Orientation (Angstroms)
    I     Atom           X                Y                Z
 ----------------------------------------------------------------
    1      C       1.5426129769     0.3719417922    -0.3260656385
    2      C       0.7227708783    -0.8635018056    -0.0428592573
    3      C      -0.5145468740    -0.6172926186    -0.8458735333
    4      C      -0.9367405703     0.6657883509     0.8761559384
    5      C      -0.5953921241     0.9073334168    -0.5902897490
    6      N       0.8268745532     1.3796940261    -0.6655428452
    7      H       2.6216236178     0.4414800959    -0.2056790384
    8      H       1.1874525981    -1.8461919043    -0.0209127559
    9      H      -1.1591154597    -1.2976074902    -1.3831832202
   10      H      -1.5660812044     1.2259459068     1.5524036839
   11      H      -1.2664163006     1.5283940883    -1.1806456000
   12      C      -0.3482220496    -0.5986462361     1.0229731633
   13      H      -0.5413967984    -1.3343043483     1.7991395179
 ----------------------------------------------------------------

 Total job time:  9903.01s(wall), 38168.43s(cpu)
        *  Thank you very much for using Q-Chem.  Have a nice day.  *
