 Q-Chem 5.0, Q-Chem, Inc., Pleasanton, CA (2017)
 Q-Chem 5.0.2 for Intel X86 EM64T Linux

User input:
--------------------------------------------------------------
$molecule
0 2
C        1.6627116761    0.3778067110   -0.5006337762
C        1.0782104491   -0.8976388011   -0.4485777725
C       -0.4036204346   -0.7278291279   -0.3764570402
C       -1.1104355262    0.7382854164    0.9862889302
C       -0.5199593501    0.8483638854   -0.4196107024
N        0.8250850576    1.4099223014   -0.4883141472
H        2.7357840270    0.5630120403   -0.5249218993
H        1.6165178120   -1.8388598983   -0.4216520580
H       -0.9745606891   -1.3222240636   -1.1019714764
H       -1.4356233044    1.4992973835    1.6892218875
H       -1.1708528121    1.2942420276   -1.1818826609
C       -1.0262340259   -0.5960862876    1.0226885103
H       -1.2770228793   -1.3482915870    1.7658222050
$end

$rem
method                b3lyp
basis                 6-31g(d)
unrestricted          true
symmetry              off
sym_ignore            true
incdft                false
incfock               0
scf_convergence       8
thresh                14
jobtype               opt
scf_guess             core
scf_guess_mix         5
scf_algorithm         diis
max_scf_cycles        100
geom_opt_max_cycles   300
$end

--------------------------------------------------------------

   22    -286.8755060421      8.30E-09 Convergence criterion met
 Total energy in the final basis set = -286.87550604
   16    -286.8755086343      5.56E-09 Convergence criterion met
 Total energy in the final basis set = -286.87550863

             Standard Nuclear Orientation (Angstroms)
    I     Atom           X                Y                Z
 ----------------------------------------------------------------
    1      C       1.6625145202     0.3780786737    -0.4999414768
    2      C       1.0773922284    -0.8968092175    -0.4474339995
    3      C      -0.4043559368    -0.7270834765    -0.3779216456
    4      C      -1.1101707328     0.7373958088     0.9856622282
    5      C      -0.5207069270     0.8483941951    -0.4208750684
    6      N       0.8245718640     1.4095548893    -0.4891427507
    7      H       2.7356625554     0.5624514373    -0.5242961413
    8      H       1.6150004589    -1.8382452129    -0.4189991135
    9      H      -0.9739436701    -1.3218554543    -1.1040162040
   10      H      -1.4331179720     1.4985281284     1.6896221245
   11      H      -1.1715747909     1.2951713405    -1.1823338388
   12      C      -1.0261051937    -0.5968425697     1.0226222583
   13      H      -1.2751664037    -1.3487385421     1.7670536275
 ----------------------------------------------------------------

   16    -286.8755089866      5.66E-09 Convergence criterion met
 Total energy in the final basis set = -286.87550899
 Final energy is   -286.875508986644
 **  OPTIMIZATION CONVERGED  **

                    Orbital Energies (a.u.)
 --------------------------------------------------------------

 Alpha MOs
 -- Occupied --
-14.328 -10.217 -10.216 -10.207 -10.202 -10.200 -10.195  -0.944
 -0.837  -0.752  -0.665  -0.618  -0.554  -0.523  -0.515  -0.481
 -0.428  -0.403  -0.386  -0.355  -0.341  -0.322  -0.270  -0.253
 -0.203

 Beta MOs
 -- Occupied --
-14.318 -10.219 -10.218 -10.203 -10.199 -10.198 -10.194  -0.932
 -0.831  -0.734  -0.665  -0.610  -0.549  -0.520  -0.512  -0.475
 -0.420  -0.396  -0.381  -0.343  -0.334  -0.301  -0.264  -0.246

          Ground-State Mulliken Net Atomic Charges

     Atom                 Charge (a.u.)    Spin (a.u.)
  --------------------------------------------------------
      1 C                     0.048227      -0.230748
      2 C                    -0.114634       0.693467
      3 C                    -0.193537      -0.053983
      4 C                    -0.075838       0.031952
      5 C                    -0.062129      -0.027671
      6 N                    -0.351413       0.516836
      7 H                     0.140562       0.007434
      8 H                     0.143352      -0.032153
      9 H                     0.148113       0.025254
     10 H                     0.137352       0.003610
     11 H                     0.151570       0.025304
     12 C                    -0.104980       0.033830
     13 H                     0.133356       0.006868
  --------------------------------------------------------
  Sum of atomic charges =     0.000000

                    Cartesian Multipole Moments
 -----------------------------------------------------------------
    Charge (ESU x 10^10)
                -0.0000
    Dipole Moment (Debye)
         X      -0.5327      Y      -2.0720      Z       0.2448
       Tot       2.1534
    Quadrupole Moments (Debye-Ang)
        XX     -38.2480     XY      -2.9424     YY     -42.2490
        XZ      -0.4218     YZ       1.0335     ZZ     -39.9096

 Total job time:  43.48s(wall), 156.23s(cpu)
        *  Thank you very much for using Q-Chem.  Have a nice day.  *
