 Q-Chem 5.0, Q-Chem, Inc., Pleasanton, CA (2017)
 Q-Chem 5.0.2 for Intel X86 EM64T Linux

User input:
--------------------------------------------------------------
$molecule
0 2
C        1.5392164198    0.3763251409   -0.3217286380
C        0.7237835684   -0.8635905406   -0.0442835533
C       -0.5074458727   -0.6176594570   -0.8565405900
C       -0.9455340254    0.6586030135    0.8685878199
C       -0.5961216257    0.9039027850   -0.5944888824
N        0.8252715345    1.3837320719   -0.6599124903
H        2.6182177406    0.4480398879   -0.1942212590
H        1.1915004950   -1.8454845596   -0.0217467856
H       -1.1723415282   -1.3004208282   -1.3646868535
H       -1.5403974969    1.2369562301    1.5616731288
H       -1.2656663429    1.5241724166   -1.1895266998
C       -0.3524882456   -0.6021520101    1.0151251099
H       -0.5445713777   -1.3393908764    1.7913703588
$end

$rem
method                b3lyp
basis                 6-31+g(d,p)
unrestricted          true
symmetry              off
sym_ignore            true
incdft                false
incfock               0
scf_convergence       8
thresh                14
jobtype               sp
scf_guess             core
scf_guess_mix         5
scf_algorithm         diis
max_scf_cycles        100
$end

--------------------------------------------------------------

             Standard Nuclear Orientation (Angstroms)
    I     Atom           X                Y                Z
 ----------------------------------------------------------------
    1      C       1.5392164198     0.3763251409    -0.3217286380
    2      C       0.7237835684    -0.8635905406    -0.0442835533
    3      C      -0.5074458727    -0.6176594570    -0.8565405900
    4      C      -0.9455340254     0.6586030135     0.8685878199
    5      C      -0.5961216257     0.9039027850    -0.5944888824
    6      N       0.8252715345     1.3837320719    -0.6599124903
    7      H       2.6182177406     0.4480398879    -0.1942212590
    8      H       1.1915004950    -1.8454845596    -0.0217467856
    9      H      -1.1723415282    -1.3004208282    -1.3646868535
   10      H      -1.5403974969     1.2369562301     1.5616731288
   11      H      -1.2656663429     1.5241724166    -1.1895266998
   12      C      -0.3524882456    -0.6021520101     1.0151251099
   13      H      -0.5445713777    -1.3393908764     1.7913703588
 ----------------------------------------------------------------

   24    -286.8437711290      5.54E-09 Convergence criterion met
 Total energy in the final basis set = -286.84377113

                    Orbital Energies (a.u.)
 --------------------------------------------------------------

 Alpha MOs
 -- Occupied --
-14.334 -10.233 -10.231 -10.228 -10.226 -10.222 -10.199  -0.969
 -0.850  -0.750  -0.690  -0.601  -0.587  -0.546  -0.524  -0.475
 -0.435  -0.419  -0.409  -0.386  -0.352  -0.307  -0.286  -0.266
 -0.153

 Beta MOs
 -- Occupied --
-14.334 -10.236 -10.232 -10.228 -10.225 -10.214 -10.190  -0.966
 -0.845  -0.743  -0.680  -0.597  -0.578  -0.543  -0.516  -0.469
 -0.431  -0.414  -0.407  -0.384  -0.346  -0.292  -0.276  -0.262

          Ground-State Mulliken Net Atomic Charges

     Atom                 Charge (a.u.)    Spin (a.u.)
  --------------------------------------------------------
      1 C                    -0.063479       0.042312
      2 C                    -0.022306      -0.028308
      3 C                    -0.277291       0.641151
      4 C                    -0.140826       0.735390
      5 C                     0.021936      -0.124465
      6 N                    -0.208160      -0.002397
      7 H                     0.134757       0.001282
      8 H                     0.131594       0.004007
      9 H                     0.148899      -0.029127
     10 H                     0.138317      -0.028055
     11 H                     0.130614       0.009010
     12 C                    -0.134312      -0.234072
     13 H                     0.140258       0.013272
  --------------------------------------------------------
  Sum of atomic charges =    -0.000000

                    Cartesian Multipole Moments
 -----------------------------------------------------------------
    Charge (ESU x 10^10)
                -0.0000
    Dipole Moment (Debye)
         X      -0.6586      Y      -2.7408      Z       0.8045
       Tot       2.9313
    Quadrupole Moments (Debye-Ang)
        XX     -39.2998     XY      -3.8425     YY     -44.0170
        XZ       1.4543     YZ       0.7963     ZZ     -42.1054

 Total job time:  33.22s(wall), 122.14s(cpu)
        *  Thank you very much for using Q-Chem.  Have a nice day.  *
