 Q-Chem 5.0, Q-Chem, Inc., Pleasanton, CA (2017)
 Q-Chem 5.0.2 for Intel X86 EM64T Linux

User input:
--------------------------------------------------------------
$molecule
0 2
C        1.5392164198    0.3763251409   -0.3217286380
C        0.7237835684   -0.8635905406   -0.0442835533
C       -0.5074458727   -0.6176594570   -0.8565405900
C       -0.9455340254    0.6586030135    0.8685878199
C       -0.5961216257    0.9039027850   -0.5944888824
N        0.8252715345    1.3837320719   -0.6599124903
H        2.6182177406    0.4480398879   -0.1942212590
H        1.1915004950   -1.8454845596   -0.0217467856
H       -1.1723415282   -1.3004208282   -1.3646868535
H       -1.5403974969    1.2369562301    1.5616731288
H       -1.2656663429    1.5241724166   -1.1895266998
C       -0.3524882456   -0.6021520101    1.0151251099
H       -0.5445713777   -1.3393908764    1.7913703588
$end

$rem
method                b3lyp
basis                 6-31+g(d,p)
unrestricted          true
symmetry              off
sym_ignore            true
incdft                false
incfock               0
scf_convergence       8
thresh                14
jobtype               ts
scf_guess             read
scf_algorithm         diis
max_scf_cycles        100
geom_opt_max_cycles   500
geom_opt_dmax         100
geom_opt_tol_gradient 10
geom_opt_hessian      read
$end

--------------------------------------------------------------

    2    -286.8437711291      7.35E-10 Convergence criterion met
 Total energy in the final basis set = -286.84377113
   13    -286.8438007637      3.90E-09 Convergence criterion met
 Total energy in the final basis set = -286.84380076
   13    -286.8438091672      3.50E-09 Convergence criterion met
 Total energy in the final basis set = -286.84380917

             Standard Nuclear Orientation (Angstroms)
    I     Atom           X                Y                Z
 ----------------------------------------------------------------
    1      C       1.5426129769     0.3719417922    -0.3260656385
    2      C       0.7227708783    -0.8635018056    -0.0428592573
    3      C      -0.5145468740    -0.6172926186    -0.8458735333
    4      C      -0.9367405703     0.6657883509     0.8761559384
    5      C      -0.5953921241     0.9073334168    -0.5902897490
    6      N       0.8268745532     1.3796940261    -0.6655428452
    7      H       2.6216236178     0.4414800959    -0.2056790384
    8      H       1.1874525981    -1.8461919043    -0.0209127559
    9      H      -1.1591154597    -1.2976074902    -1.3831832202
   10      H      -1.5660812044     1.2259459068     1.5524036839
   11      H      -1.2664163006     1.5283940883    -1.1806456000
   12      C      -0.3482220496    -0.5986462361     1.0229731633
   13      H      -0.5413967984    -1.3343043483     1.7991395179
 ----------------------------------------------------------------

   10    -286.8438093169      4.40E-09 Convergence criterion met
 Total energy in the final basis set = -286.84380932
 Final energy is   -286.843809316892
 **  OPTIMIZATION CONVERGED  **

                    Orbital Energies (a.u.)
 --------------------------------------------------------------

 Alpha MOs
 -- Occupied --
-14.334 -10.234 -10.231 -10.228 -10.225 -10.222 -10.199  -0.969
 -0.850  -0.750  -0.690  -0.601  -0.587  -0.546  -0.524  -0.474
 -0.436  -0.418  -0.409  -0.387  -0.351  -0.307  -0.286  -0.266
 -0.152

 Beta MOs
 -- Occupied --
-14.334 -10.236 -10.232 -10.228 -10.225 -10.214 -10.189  -0.965
 -0.844  -0.743  -0.680  -0.597  -0.577  -0.544  -0.516  -0.469
 -0.432  -0.413  -0.407  -0.385  -0.346  -0.291  -0.277  -0.262

          Ground-State Mulliken Net Atomic Charges

     Atom                 Charge (a.u.)    Spin (a.u.)
  --------------------------------------------------------
      1 C                    -0.063826       0.042463
      2 C                    -0.016729      -0.032507
      3 C                    -0.278454       0.641343
      4 C                    -0.133788       0.738271
      5 C                     0.016447      -0.123880
      6 N                    -0.207644      -0.003029
      7 H                     0.134935       0.001340
      8 H                     0.131551       0.003602
      9 H                     0.147327      -0.028091
     10 H                     0.138782      -0.030238
     11 H                     0.130430       0.008311
     12 C                    -0.139561      -0.230217
     13 H                     0.140531       0.012632
  --------------------------------------------------------
  Sum of atomic charges =     0.000000

                    Cartesian Multipole Moments
 -----------------------------------------------------------------
    Charge (ESU x 10^10)
                 0.0000
    Dipole Moment (Debye)
         X      -0.6801      Y      -2.7587      Z       0.7698
       Tot       2.9437
    Quadrupole Moments (Debye-Ang)
        XX     -39.2105     XY      -3.9204     YY     -44.0738
        XZ       1.4078     YZ       0.7703     ZZ     -42.0852

 Total job time:  72.22s(wall), 266.66s(cpu)
        *  Thank you very much for using Q-Chem.  Have a nice day.  *
