 Q-Chem 5.0, Q-Chem, Inc., Pleasanton, CA (2017)
 Q-Chem 5.0.2 for Intel X86 EM64T Linux

User input:
--------------------------------------------------------------
$molecule
0 2
C        1.5451528657    0.3797937727   -0.3050659797
C        0.7522862274   -0.8823811146   -0.1146952840
C       -0.4455080314   -0.6042477319   -0.9495608666
C       -0.9984135178    0.6186366485    0.8530114589
C       -0.5791482387    0.8913142417   -0.5990489747
N        0.8197136826    1.3989916924   -0.6000288805
H        2.6252187558    0.4693063692   -0.1986661371
H        1.2742182675   -1.8459320248   -0.1102364264
H       -1.2311938869   -1.3051776769   -1.1925597491
H       -1.5121278306    1.2742606474    1.5493300633
H       -1.2374517861    1.5100043176   -1.2088740211
C       -0.4141490716   -0.5995102572    1.0479652850
H       -0.6251741927   -1.3420256101    1.8180501774
$end

$rem
method                b3lyp
basis                 6-31g(d)
unrestricted          true
symmetry              off
sym_ignore            true
incdft                false
incfock               0
scf_convergence       6
thresh                14
jobtype               sp
scf_guess             read
scf_algorithm         diis
max_scf_cycles        100
stability_analysis    true
max_cis_cycles        100
cis_n_roots           4
$end

--------------------------------------------------------------

             Standard Nuclear Orientation (Angstroms)
    I     Atom           X                Y                Z
 ----------------------------------------------------------------
    1      C       1.5451528657     0.3797937727    -0.3050659797
    2      C       0.7522862274    -0.8823811146    -0.1146952840
    3      C      -0.4455080314    -0.6042477319    -0.9495608666
    4      C      -0.9984135178     0.6186366485     0.8530114589
    5      C      -0.5791482387     0.8913142417    -0.5990489747
    6      N       0.8197136826     1.3989916924    -0.6000288805
    7      H       2.6252187558     0.4693063692    -0.1986661371
    8      H       1.2742182675    -1.8459320248    -0.1102364264
    9      H      -1.2311938869    -1.3051776769    -1.1925597491
   10      H      -1.5121278306     1.2742606474     1.5493300633
   11      H      -1.2374517861     1.5100043176    -1.2088740211
   12      C      -0.4141490716    -0.5995102572     1.0479652850
   13      H      -0.6251741927    -1.3420256101     1.8180501774
 ----------------------------------------------------------------

    2    -286.8167257202      2.37E-09 Convergence criterion met
 Total energy in the final basis set = -286.81672572

         TDDFT/TDA Excitation Energies
 ---------------------------------------------------

 Excited state   1: excitation energy (eV) =    2.2112
 Total energy for state  1:                  -286.73546705 au
    <S**2>     :  0.8215
    Trans. Mom.: -0.0894 X  -0.3030 Y  -0.2399 Z
    Strength   :     0.0085261629
    S(  1) --> V(  1) amplitude =  0.9669 alpha

 Excited state   2: excitation energy (eV) =    3.1129
 Total energy for state  2:                  -286.70232834 au
    <S**2>     :  0.8630
    Trans. Mom.: -0.2921 X  -0.0177 Y   0.2146 Z
    Strength   :     0.0100419515
    S(  1) --> V(  2) amplitude =  0.9615 alpha

 Excited state   3: excitation energy (eV) =    4.2919
 Total energy for state  3:                  -286.65900034 au
    <S**2>     :  2.4059
    Trans. Mom.:  0.0157 X   0.1241 Y   0.1486 Z
    Strength   :     0.0039662436
    D( 22) --> V(  2) amplitude = -0.1732 alpha
    D( 23) --> V(  1) amplitude = -0.2767 alpha
    D( 24) --> V(  1) amplitude =  0.4893 alpha
    D( 22) --> S(  1) amplitude = -0.1555 beta
    D( 22) --> V(  2) amplitude =  0.1759 beta
    D( 23) --> S(  1) amplitude = -0.1592 beta
    D( 24) --> S(  1) amplitude =  0.6139 beta
    D( 24) --> V(  1) amplitude = -0.3495 beta

 Excited state   4: excitation energy (eV) =    4.4094
 Total energy for state  4:                  -286.65468226 au
    <S**2>     :  2.5516
    Trans. Mom.:  0.0218 X   0.0126 Y  -0.0027 Z
    Strength   :     0.0000692744
    D( 23) --> V(  1) amplitude =  0.4701 alpha
    D( 23) --> V(  2) amplitude =  0.3074 alpha
    D( 24) --> V(  1) amplitude =  0.2291 alpha
    D( 24) --> V(  2) amplitude =  0.1521 alpha
    D( 22) --> S(  1) amplitude =  0.1662 beta
    D( 23) --> S(  1) amplitude =  0.5228 beta
    D( 23) --> V(  1) amplitude = -0.3261 beta
    D( 23) --> V(  2) amplitude = -0.2427 beta
    D( 24) --> S(  1) amplitude =  0.2129 beta

 ---------------------------------------------------

                    Orbital Energies (a.u.)
 --------------------------------------------------------------

 Alpha MOs
 -- Occupied --
-14.319 -10.226 -10.220 -10.219 -10.219 -10.199 -10.196  -0.953
 -0.826  -0.738  -0.687  -0.590  -0.571  -0.530  -0.517  -0.467
 -0.419  -0.409  -0.396  -0.374  -0.340  -0.301  -0.270  -0.254
 -0.148

 Beta MOs
 -- Occupied --
-14.319 -10.228 -10.220 -10.220 -10.219 -10.189 -10.187  -0.949
 -0.820  -0.732  -0.677  -0.585  -0.561  -0.528  -0.511  -0.460
 -0.414  -0.405  -0.393  -0.372  -0.332  -0.285  -0.264  -0.249

          Ground-State Mulliken Net Atomic Charges

     Atom                 Charge (a.u.)    Spin (a.u.)
  --------------------------------------------------------
      1 C                     0.102104       0.034291
      2 C                    -0.211126       0.004013
      3 C                    -0.128089       0.804985
      4 C                    -0.071916       0.437715
      5 C                    -0.096552      -0.060297
      6 N                    -0.338097      -0.003554
      7 H                     0.147114      -0.000748
      8 H                     0.141455       0.004617
      9 H                     0.150954      -0.035054
     10 H                     0.150657      -0.013086
     11 H                     0.142421       0.009082
     12 C                    -0.138744      -0.198116
     13 H                     0.149819       0.016154
  --------------------------------------------------------
  Sum of atomic charges =    -0.000000

                    Cartesian Multipole Moments
 -----------------------------------------------------------------
    Charge (ESU x 10^10)
                -0.0000
    Dipole Moment (Debye)
         X      -0.6698      Y      -2.2287      Z       1.1278
       Tot       2.5861
    Quadrupole Moments (Debye-Ang)
        XX     -37.8156     XY      -3.3080     YY     -42.2402
        XZ       0.4856     YZ       0.6943     ZZ     -41.2453

 Total job time:  85.12s(wall), 83.69s(cpu)
        *  Thank you very much for using Q-Chem.  Have a nice day.  *
