 Q-Chem 5.0, Q-Chem, Inc., Pleasanton, CA (2017)
 Q-Chem 5.0.2 for Intel X86 EM64T Linux

User input:
--------------------------------------------------------------
$molecule
0 2
C        1.5451528657    0.3797937727   -0.3050659797
C        0.7522862274   -0.8823811146   -0.1146952840
C       -0.4455080314   -0.6042477319   -0.9495608666
C       -0.9984135178    0.6186366485    0.8530114589
C       -0.5791482387    0.8913142417   -0.5990489747
N        0.8197136826    1.3989916924   -0.6000288805
H        2.6252187558    0.4693063692   -0.1986661371
H        1.2742182675   -1.8459320248   -0.1102364264
H       -1.2311938869   -1.3051776769   -1.1925597491
H       -1.5121278306    1.2742606474    1.5493300633
H       -1.2374517861    1.5100043176   -1.2088740211
C       -0.4141490716   -0.5995102572    1.0479652850
H       -0.6251741927   -1.3420256101    1.8180501774
$end

$rem
method                b3lyp
basis                 6-31g(d)
unrestricted          true
symmetry              off
sym_ignore            true
incdft                false
incfock               0
scf_convergence       8
thresh                14
jobtype               ts
scf_guess             read
scf_algorithm         diis
max_scf_cycles        100
geom_opt_max_cycles   500
geom_opt_dmax         100
geom_opt_tol_gradient 10
geom_opt_hessian      read
$end

--------------------------------------------------------------

    2    -286.8167257202      3.01E-10 Convergence criterion met
 Total energy in the final basis set = -286.81672572
   15    -286.8178793528      6.35E-09 Convergence criterion met
 Total energy in the final basis set = -286.81787935
   15    -286.8188458622      6.14E-09 Convergence criterion met
 Total energy in the final basis set = -286.81884586
   15    -286.8194979879      5.28E-09 Convergence criterion met
 Total energy in the final basis set = -286.81949799
   14    -286.8198935851      7.01E-09 Convergence criterion met
 Total energy in the final basis set = -286.81989359
   13    -286.8201435371      8.41E-09 Convergence criterion met
 Total energy in the final basis set = -286.82014354
   13    -286.8203213367      5.01E-09 Convergence criterion met
 Total energy in the final basis set = -286.82032134
   13    -286.8204558820      3.37E-09 Convergence criterion met
   12    -286.8208025234      3.37E-09 Convergence criterion met
 Total energy in the final basis set = -286.82080252
   11    -286.8208024995      3.92E-09 Convergence criterion met
 Total energy in the final basis set = -286.82080250
   13    -286.8207909073      3.86E-09 Convergence criterion met
 Total energy in the final basis set = -286.82079091
   13    -286.8207993947      3.53E-09 Convergence criterion met
 Total energy in the final basis set = -286.82079939
   11    -286.8208018496      9.98E-09 Convergence criterion met
 Total energy in the final basis set = -286.82080185
   13    -286.8207956744      3.43E-09 Convergence criterion met
 Total energy in the final basis set = -286.82079567

             Standard Nuclear Orientation (Angstroms)
    I     Atom           X                Y                Z
 ----------------------------------------------------------------
    1      C       1.5392164198     0.3763251409    -0.3217286380
    2      C       0.7237835684    -0.8635905406    -0.0442835533
    3      C      -0.5074458727    -0.6176594570    -0.8565405900
    4      C      -0.9455340254     0.6586030135     0.8685878199
    5      C      -0.5961216257     0.9039027850    -0.5944888824
    6      N       0.8252715345     1.3837320719    -0.6599124903
    7      H       2.6182177406     0.4480398879    -0.1942212590
    8      H       1.1915004950    -1.8454845596    -0.0217467856
    9      H      -1.1723415282    -1.3004208282    -1.3646868535
   10      H      -1.5403974969     1.2369562301     1.5616731288
   11      H      -1.2656663429     1.5241724166    -1.1895266998
   12      C      -0.3524882456    -0.6021520101     1.0151251099
   13      H      -0.5445713777    -1.3393908764     1.7913703588
 ----------------------------------------------------------------

   12    -286.8208026171      9.85E-09 Convergence criterion met
 Total energy in the final basis set = -286.82080262
 Final energy is   -286.820802617132
 **  OPTIMIZATION CONVERGED  **

                    Orbital Energies (a.u.)
 --------------------------------------------------------------

 Alpha MOs
 -- Occupied --
-14.318 -10.221 -10.220 -10.217 -10.214 -10.209 -10.186  -0.956
 -0.837  -0.739  -0.679  -0.591  -0.576  -0.536  -0.515  -0.463
 -0.425  -0.408  -0.397  -0.376  -0.341  -0.295  -0.273  -0.252
 -0.140

 Beta MOs
 -- Occupied --
-14.318 -10.224 -10.220 -10.216 -10.214 -10.200 -10.176  -0.952
 -0.832  -0.731  -0.669  -0.586  -0.567  -0.534  -0.507  -0.458
 -0.421  -0.403  -0.395  -0.374  -0.335  -0.279  -0.263  -0.248

          Ground-State Mulliken Net Atomic Charges

     Atom                 Charge (a.u.)    Spin (a.u.)
  --------------------------------------------------------
      1 C                     0.099596       0.045352
      2 C                    -0.199056       0.005059
      3 C                    -0.133081       0.603202
      4 C                    -0.077617       0.682897
      5 C                    -0.095613      -0.069532
      6 N                    -0.338701      -0.005296
      7 H                     0.144883       0.001449
      8 H                     0.142580       0.003561
      9 H                     0.158476      -0.031246
     10 H                     0.141188      -0.028636
     11 H                     0.139926       0.008221
     12 C                    -0.131381      -0.229373
     13 H                     0.148799       0.014342
  --------------------------------------------------------
  Sum of atomic charges =    -0.000000

                    Cartesian Multipole Moments
 -----------------------------------------------------------------
    Charge (ESU x 10^10)
                -0.0000
    Dipole Moment (Debye)
         X      -0.6628      Y      -2.4988      Z       0.7624
       Tot       2.6953
    Quadrupole Moments (Debye-Ang)
        XX     -38.2368     XY      -3.2612     YY     -42.3433
        XZ       1.2178     YZ       0.9584     ZZ     -40.4187

 Total job time:  230.27s(wall), 852.00s(cpu)
        *  Thank you very much for using Q-Chem.  Have a nice day.  *
