 Q-Chem 5.0, Q-Chem, Inc., Pleasanton, CA (2017)
 Q-Chem 5.0.2 for Intel X86 EM64T Linux

User input:
--------------------------------------------------------------
$molecule
0 2
C        1.5392164198    0.3763251409   -0.3217286380
C        0.7237835684   -0.8635905406   -0.0442835533
C       -0.5074458727   -0.6176594570   -0.8565405900
C       -0.9455340254    0.6586030135    0.8685878199
C       -0.5961216257    0.9039027850   -0.5944888824
N        0.8252715345    1.3837320719   -0.6599124903
H        2.6182177406    0.4480398879   -0.1942212590
H        1.1915004950   -1.8454845596   -0.0217467856
H       -1.1723415282   -1.3004208282   -1.3646868535
H       -1.5403974969    1.2369562301    1.5616731288
H       -1.2656663429    1.5241724166   -1.1895266998
C       -0.3524882456   -0.6021520101    1.0151251099
H       -0.5445713777   -1.3393908764    1.7913703588
$end

$rem
method                b3lyp
basis                 6-31g(d)
unrestricted          true
symmetry              off
sym_ignore            true
incdft                false
incfock               0
scf_convergence       8
thresh                14
jobtype               sp
scf_guess             read
scf_algorithm         diis
max_scf_cycles        100
$end

--------------------------------------------------------------

             Standard Nuclear Orientation (Angstroms)
    I     Atom           X                Y                Z
 ----------------------------------------------------------------
    1      C       1.5392164198     0.3763251409    -0.3217286380
    2      C       0.7237835684    -0.8635905406    -0.0442835533
    3      C      -0.5074458727    -0.6176594570    -0.8565405900
    4      C      -0.9455340254     0.6586030135     0.8685878199
    5      C      -0.5961216257     0.9039027850    -0.5944888824
    6      N       0.8252715345     1.3837320719    -0.6599124903
    7      H       2.6182177406     0.4480398879    -0.1942212590
    8      H       1.1915004950    -1.8454845596    -0.0217467856
    9      H      -1.1723415282    -1.3004208282    -1.3646868535
   10      H      -1.5403974969     1.2369562301     1.5616731288
   11      H      -1.2656663429     1.5241724166    -1.1895266998
   12      C      -0.3524882456    -0.6021520101     1.0151251099
   13      H      -0.5445713777    -1.3393908764     1.7913703588
 ----------------------------------------------------------------

    2    -286.8208026171      4.25E-09 Convergence criterion met
 Total energy in the final basis set = -286.82080262

                    Orbital Energies (a.u.)
 --------------------------------------------------------------

 Alpha MOs
 -- Occupied --
-14.318 -10.221 -10.220 -10.217 -10.214 -10.209 -10.186  -0.956
 -0.837  -0.739  -0.679  -0.591  -0.576  -0.536  -0.515  -0.463
 -0.425  -0.408  -0.397  -0.376  -0.341  -0.295  -0.273  -0.252
 -0.140

 Beta MOs
 -- Occupied --
-14.318 -10.224 -10.220 -10.216 -10.214 -10.200 -10.176  -0.952
 -0.832  -0.731  -0.669  -0.586  -0.567  -0.534  -0.507  -0.458
 -0.421  -0.403  -0.395  -0.374  -0.335  -0.279  -0.263  -0.248

          Ground-State Mulliken Net Atomic Charges

     Atom                 Charge (a.u.)    Spin (a.u.)
  --------------------------------------------------------
      1 C                     0.099596       0.045350
      2 C                    -0.199056       0.005060
      3 C                    -0.133081       0.603203
      4 C                    -0.077617       0.682897
      5 C                    -0.095612      -0.069533
      6 N                    -0.338701      -0.005294
      7 H                     0.144883       0.001449
      8 H                     0.142580       0.003561
      9 H                     0.158476      -0.031246
     10 H                     0.141188      -0.028636
     11 H                     0.139926       0.008221
     12 C                    -0.131381      -0.229374
     13 H                     0.148799       0.014342
  --------------------------------------------------------
  Sum of atomic charges =    -0.000000

                    Cartesian Multipole Moments
 -----------------------------------------------------------------
    Charge (ESU x 10^10)
                -0.0000
    Dipole Moment (Debye)
         X      -0.6628      Y      -2.4988      Z       0.7624
       Tot       2.6953
    Quadrupole Moments (Debye-Ang)
        XX     -38.2368     XY      -3.2612     YY     -42.3433
        XZ       1.2179     YZ       0.9584     ZZ     -40.4187

 Total job time:  2.00s(wall), 6.63s(cpu)
        *  Thank you very much for using Q-Chem.  Have a nice day.  *
