 Q-Chem 5.0, Q-Chem, Inc., Pleasanton, CA (2017)
 Q-Chem 5.0.2 for Intel X86 EM64T Linux

User input:
--------------------------------------------------------------
$molecule
0 2
C        1.5426129769    0.3719417922   -0.3260656385
C        0.7227708783   -0.8635018056   -0.0428592573
C       -0.5145468740   -0.6172926186   -0.8458735333
C       -0.9367405703    0.6657883509    0.8761559384
C       -0.5953921241    0.9073334168   -0.5902897490
N        0.8268745532    1.3796940261   -0.6655428452
H        2.6216236178    0.4414800959   -0.2056790384
H        1.1874525981   -1.8461919043   -0.0209127559
H       -1.1591154597   -1.2976074902   -1.3831832202
H       -1.5660812044    1.2259459068    1.5524036839
H       -1.2664163006    1.5283940883   -1.1806456000
C       -0.3482220496   -0.5986462361    1.0229731633
H       -0.5413967984   -1.3343043483    1.7991395179
$end

$rem
method                b3lyp
basis                 6-31+g(d,p)
unrestricted          true
symmetry              off
sym_ignore            true
incdft                false
incfock               0
scf_convergence       8
thresh                14
jobtype               freq
scf_guess             read
scf_algorithm         diis
max_scf_cycles        100
$end

--------------------------------------------------------------

             Standard Nuclear Orientation (Angstroms)
    I     Atom           X                Y                Z
 ----------------------------------------------------------------
    1      C       1.5426129769     0.3719417922    -0.3260656385
    2      C       0.7227708783    -0.8635018056    -0.0428592573
    3      C      -0.5145468740    -0.6172926186    -0.8458735333
    4      C      -0.9367405703     0.6657883509     0.8761559384
    5      C      -0.5953921241     0.9073334168    -0.5902897490
    6      N       0.8268745532     1.3796940261    -0.6655428452
    7      H       2.6216236178     0.4414800959    -0.2056790384
    8      H       1.1874525981    -1.8461919043    -0.0209127559
    9      H      -1.1591154597    -1.2976074902    -1.3831832202
   10      H      -1.5660812044     1.2259459068     1.5524036839
   11      H      -1.2664163006     1.5283940883    -1.1806456000
   12      C      -0.3482220496    -0.5986462361     1.0229731633
   13      H      -0.5413967984    -1.3343043483     1.7991395179
 ----------------------------------------------------------------

    2    -286.8438093169      3.43E-10 Convergence criterion met
 Total energy in the final basis set = -286.84380932

                    Orbital Energies (a.u.)
 --------------------------------------------------------------

 Alpha MOs
 -- Occupied --
-14.334 -10.234 -10.231 -10.228 -10.225 -10.222 -10.199  -0.969
 -0.850  -0.750  -0.690  -0.601  -0.587  -0.546  -0.524  -0.474
 -0.436  -0.418  -0.409  -0.387  -0.351  -0.307  -0.286  -0.266
 -0.152

 Beta MOs
 -- Occupied --
-14.334 -10.236 -10.232 -10.228 -10.225 -10.214 -10.189  -0.965
 -0.844  -0.743  -0.680  -0.597  -0.577  -0.544  -0.516  -0.469
 -0.432  -0.413  -0.407  -0.385  -0.346  -0.291  -0.277  -0.262

          Ground-State Mulliken Net Atomic Charges

     Atom                 Charge (a.u.)    Spin (a.u.)
  --------------------------------------------------------
      1 C                    -0.063826       0.042459
      2 C                    -0.016729      -0.032507
      3 C                    -0.278454       0.641344
      4 C                    -0.133788       0.738273
      5 C                     0.016447      -0.123881
      6 N                    -0.207644      -0.003025
      7 H                     0.134935       0.001340
      8 H                     0.131551       0.003602
      9 H                     0.147327      -0.028091
     10 H                     0.138782      -0.030238
     11 H                     0.130430       0.008311
     12 C                    -0.139561      -0.230220
     13 H                     0.140531       0.012633
  --------------------------------------------------------
  Sum of atomic charges =     0.000000

                    Cartesian Multipole Moments
 -----------------------------------------------------------------
    Charge (ESU x 10^10)
                 0.0000
    Dipole Moment (Debye)
         X      -0.6801      Y      -2.7587      Z       0.7698
       Tot       2.9437
    Quadrupole Moments (Debye-Ang)
        XX     -39.2105     XY      -3.9204     YY     -44.0738
        XZ       1.4078     YZ       0.7703     ZZ     -42.0852

 Frequency:      -745.62                 263.83                 349.87
 Force Cnst:      1.7901                 0.0486                 0.0762
 Red. Mass:       5.4650                 1.1842                 1.0560
 IR Intens:       59.644                 16.171                 36.693
 Frequency:       449.49                 475.60                 590.28
 Force Cnst:      0.5601                 0.5290                 0.7571
 Red. Mass:       4.7050                 3.9694                 3.6880
 IR Intens:        7.025                 10.425                  3.702
 Frequency:       716.61                 783.17                 809.91
 Force Cnst:      2.0609                 1.8150                 0.8885
 Red. Mass:       6.8113                 5.0226                 2.2990
 IR Intens:        0.651                  5.869                  5.751
 Frequency:       857.04                 873.75                 896.49
 Force Cnst:      1.2893                 1.1335                 0.8752
 Red. Mass:       2.9793                 2.5200                 1.8483
 IR Intens:        4.996                 25.430                  4.729
 Frequency:       908.42                 919.87                 939.93
 Force Cnst:      0.8859                 1.1421                 1.1162
 Red. Mass:       1.8221                 2.2910                 2.1443
 IR Intens:       11.163                  9.342                  2.744
 Frequency:       961.26                1023.64                1083.49
 Force Cnst:      0.8953                 1.0814                 1.1628
 Red. Mass:       1.6444                 1.7516                 1.6812
 IR Intens:        7.231                  6.095                  5.552
 Frequency:      1137.78                1181.64                1217.27
 Force Cnst:      1.3216                 1.7888                 1.1846
 Red. Mass:       1.7327                 2.1744                 1.3569
 IR Intens:        4.910                  5.275                  1.721
 Frequency:      1261.13                1280.55                1305.89
 Force Cnst:      1.1499                 1.3886                 2.0028
 Red. Mass:       1.2271                 1.4372                 1.9933
 IR Intens:        1.147                  3.604                 14.715
 Frequency:      1320.47                1403.25                1643.33
 Force Cnst:      1.6127                 3.0427                12.5119
 Red. Mass:       1.5698                 2.6227                 7.8636
 IR Intens:       20.273                  1.966                 26.719
 Frequency:      3161.56                3171.12                3183.56
 Force Cnst:      6.4222                 6.4571                 6.5334
 Red. Mass:       1.0905                 1.0898                 1.0941
 IR Intens:       23.045                  6.794                 16.588
 Frequency:      3190.70                3266.52                3273.46
 Force Cnst:      6.5569                 6.8819                 6.9220
 Red. Mass:       1.0931                 1.0947                 1.0964
 IR Intens:       17.822                  0.482                  0.731

 STANDARD THERMODYNAMIC QUANTITIES AT   298.15 K  AND     1.00 ATM

   This Molecule has  1 Imaginary Frequencies
   Zero point vibrational energy:       62.759 kcal/mol

   Atom    1 Element C  Has Mass   12.00000
   Atom    2 Element C  Has Mass   12.00000
   Atom    3 Element C  Has Mass   12.00000
   Atom    4 Element C  Has Mass   12.00000
   Atom    5 Element C  Has Mass   12.00000
   Atom    6 Element N  Has Mass   14.00307
   Atom    7 Element H  Has Mass    1.00783
   Atom    8 Element H  Has Mass    1.00783
   Atom    9 Element H  Has Mass    1.00783
   Atom   10 Element H  Has Mass    1.00783
   Atom   11 Element H  Has Mass    1.00783
   Atom   12 Element C  Has Mass   12.00000
   Atom   13 Element H  Has Mass    1.00783
   Molecular Mass:    92.050050 amu
   Principal axes and moments of inertia in amu*Bohr^2:
                             1           2           3
    Eigenvalues --      377.30229   457.88166   570.62784
          X               0.75808    -0.52820     0.38252
          Y               0.42565     0.84512     0.32342
          Z              -0.49411    -0.08236     0.86549
   Rotational Symmetry Number is   1
   The Molecule is an Asymmetric Top
   Translational Enthalpy:        0.889 kcal/mol
   Rotational Enthalpy:           0.889 kcal/mol
   Vibrational Enthalpy:         64.207 kcal/mol
   gas constant (RT):             0.592 kcal/mol
   Translational Entropy:        39.471  cal/mol.K
   Rotational Entropy:           26.091  cal/mol.K
   Vibrational Entropy:           6.877  cal/mol.K

   Total Enthalpy:               66.577 kcal/mol
   Total Entropy:                72.439  cal/mol.K

 Total job time:  563.89s(wall), 559.40s(cpu)
        *  Thank you very much for using Q-Chem.  Have a nice day.  *
