 Q-Chem 5.0, Q-Chem, Inc., Pleasanton, CA (2017)
 Q-Chem 5.0.2 for Intel X86 EM64T Linux

User input:
--------------------------------------------------------------
$molecule
0 2
C        1.5451528657    0.3797937727   -0.3050659797
C        0.7522862274   -0.8823811146   -0.1146952840
C       -0.4455080314   -0.6042477319   -0.9495608666
C       -0.9984135178    0.6186366485    0.8530114589
C       -0.5791482387    0.8913142417   -0.5990489747
N        0.8197136826    1.3989916924   -0.6000288805
H        2.6252187558    0.4693063692   -0.1986661371
H        1.2742182675   -1.8459320248   -0.1102364264
H       -1.2311938869   -1.3051776769   -1.1925597491
H       -1.5121278306    1.2742606474    1.5493300633
H       -1.2374517861    1.5100043176   -1.2088740211
C       -0.4141490716   -0.5995102572    1.0479652850
H       -0.6251741927   -1.3420256101    1.8180501774
$end

$rem
method                b3lyp
basis                 6-31g(d)
unrestricted          true
symmetry              off
sym_ignore            true
incdft                false
incfock               0
scf_convergence       8
thresh                14
jobtype               freq
scf_guess             read
scf_algorithm         diis
max_scf_cycles        100
$end

--------------------------------------------------------------

             Standard Nuclear Orientation (Angstroms)
    I     Atom           X                Y                Z
 ----------------------------------------------------------------
    1      C       1.5451528657     0.3797937727    -0.3050659797
    2      C       0.7522862274    -0.8823811146    -0.1146952840
    3      C      -0.4455080314    -0.6042477319    -0.9495608666
    4      C      -0.9984135178     0.6186366485     0.8530114589
    5      C      -0.5791482387     0.8913142417    -0.5990489747
    6      N       0.8197136826     1.3989916924    -0.6000288805
    7      H       2.6252187558     0.4693063692    -0.1986661371
    8      H       1.2742182675    -1.8459320248    -0.1102364264
    9      H      -1.2311938869    -1.3051776769    -1.1925597491
   10      H      -1.5121278306     1.2742606474     1.5493300633
   11      H      -1.2374517861     1.5100043176    -1.2088740211
   12      C      -0.4141490716    -0.5995102572     1.0479652850
   13      H      -0.6251741927    -1.3420256101     1.8180501774
 ----------------------------------------------------------------

    2    -286.8167257202      9.89E-10 Convergence criterion met
 Total energy in the final basis set = -286.81672572

                    Orbital Energies (a.u.)
 --------------------------------------------------------------

 Alpha MOs
 -- Occupied --
-14.319 -10.226 -10.220 -10.219 -10.219 -10.199 -10.196  -0.953
 -0.826  -0.738  -0.687  -0.590  -0.571  -0.530  -0.517  -0.467
 -0.419  -0.409  -0.396  -0.374  -0.340  -0.301  -0.270  -0.254
 -0.148

 Beta MOs
 -- Occupied --
-14.319 -10.228 -10.220 -10.220 -10.219 -10.189 -10.187  -0.949
 -0.820  -0.732  -0.677  -0.585  -0.561  -0.528  -0.511  -0.460
 -0.414  -0.405  -0.393  -0.372  -0.332  -0.285  -0.264  -0.249

          Ground-State Mulliken Net Atomic Charges

     Atom                 Charge (a.u.)    Spin (a.u.)
  --------------------------------------------------------
      1 C                     0.102104       0.034289
      2 C                    -0.211126       0.004013
      3 C                    -0.128089       0.804985
      4 C                    -0.071916       0.437714
      5 C                    -0.096552      -0.060296
      6 N                    -0.338097      -0.003553
      7 H                     0.147114      -0.000748
      8 H                     0.141455       0.004617
      9 H                     0.150954      -0.035054
     10 H                     0.150657      -0.013086
     11 H                     0.142421       0.009082
     12 C                    -0.138743      -0.198115
     13 H                     0.149819       0.016153
  --------------------------------------------------------
  Sum of atomic charges =    -0.000000

                    Cartesian Multipole Moments
 -----------------------------------------------------------------
    Charge (ESU x 10^10)
                -0.0000
    Dipole Moment (Debye)
         X      -0.6698      Y      -2.2287      Z       1.1278
       Tot       2.5861
    Quadrupole Moments (Debye-Ang)
        XX     -37.8156     XY      -3.3080     YY     -42.2402
        XZ       0.4856     YZ       0.6943     ZZ     -41.2453

 Frequency:      -737.98                 424.03                 444.50
 Force Cnst:      1.1425                 0.3872                 0.2682
 Red. Mass:       3.5604                 3.6547                 2.3036
 IR Intens:      101.073                  2.432                  1.464
 Frequency:       484.38                 525.03                 610.86
 Force Cnst:      0.2633                 0.4322                 0.6947
 Red. Mass:       1.9051                 2.6611                 3.1597
 IR Intens:       12.815                 23.282                  2.838
 Frequency:       651.56                 727.72                 799.36
 Force Cnst:      0.3409                 1.8227                 1.4313
 Red. Mass:       1.3629                 5.8415                 3.8018
 IR Intens:       38.287                  5.169                  5.504
 Frequency:       850.92                 872.83                 887.45
 Force Cnst:      0.7798                 1.4281                 0.8789
 Red. Mass:       1.8280                 3.1817                 1.8942
 IR Intens:        8.864                  3.833                  4.583
 Frequency:       919.72                 922.88                 941.24
 Force Cnst:      1.1110                 1.1651                 1.2733
 Red. Mass:       2.2293                 2.3219                 2.4394
 IR Intens:       15.770                  7.822                  4.833
 Frequency:       973.41                1022.97                1088.08
 Force Cnst:      1.0738                 1.0213                 0.9412
 Red. Mass:       1.9234                 1.6565                 1.3493
 IR Intens:        7.601                  5.619                  0.161
 Frequency:      1128.94                1210.29                1222.99
 Force Cnst:      1.0942                 1.2586                 1.5459
 Red. Mass:       1.4572                 1.4584                 1.7542
 IR Intens:        8.256                  5.844                  0.770
 Frequency:      1270.54                1277.49                1308.59
 Force Cnst:      1.3960                 1.2508                 1.7061
 Red. Mass:       1.4678                 1.3009                 1.6910
 IR Intens:        9.886                  4.364                 10.411
 Frequency:      1341.17                1485.70                1638.11
 Force Cnst:      1.6626                 5.1262                11.6387
 Red. Mass:       1.5688                 3.9417                 7.3616
 IR Intens:       14.689                  6.508                 19.447
 Frequency:      3110.71                3153.05                3166.89
 Force Cnst:      6.2189                 6.3818                 6.4497
 Red. Mass:       1.0908                 1.0895                 1.0915
 IR Intens:       15.027                 28.653                 15.050
 Frequency:      3185.84                3222.92                3270.51
 Force Cnst:      6.5412                 6.7212                 6.8814
 Red. Mass:       1.0939                 1.0982                 1.0919
 IR Intens:       20.578                  3.803                  5.094

 STANDARD THERMODYNAMIC QUANTITIES AT   298.15 K  AND     1.00 ATM

   This Molecule has  1 Imaginary Frequencies
   Zero point vibrational energy:       63.102 kcal/mol

   Atom    1 Element C  Has Mass   12.00000
   Atom    2 Element C  Has Mass   12.00000
   Atom    3 Element C  Has Mass   12.00000
   Atom    4 Element C  Has Mass   12.00000
   Atom    5 Element C  Has Mass   12.00000
   Atom    6 Element N  Has Mass   14.00307
   Atom    7 Element H  Has Mass    1.00783
   Atom    8 Element H  Has Mass    1.00783
   Atom    9 Element H  Has Mass    1.00783
   Atom   10 Element H  Has Mass    1.00783
   Atom   11 Element H  Has Mass    1.00783
   Atom   12 Element C  Has Mass   12.00000
   Atom   13 Element H  Has Mass    1.00783
   Molecular Mass:    92.050050 amu
   Principal axes and moments of inertia in amu*Bohr^2:
                             1           2           3
    Eigenvalues --      381.29065   467.76806   576.84051
          X               0.78973    -0.46006     0.40580
          Y               0.37252     0.88521     0.27860
          Z              -0.48739    -0.06885     0.87046
   Rotational Symmetry Number is   1
   The Molecule is an Asymmetric Top
   Translational Enthalpy:        0.889 kcal/mol
   Rotational Enthalpy:           0.889 kcal/mol
   Vibrational Enthalpy:         64.357 kcal/mol
   gas constant (RT):             0.592 kcal/mol
   Translational Entropy:        39.471  cal/mol.K
   Rotational Entropy:           26.134  cal/mol.K
   Vibrational Entropy:           5.634  cal/mol.K

   Total Enthalpy:               66.727 kcal/mol
   Total Entropy:                71.239  cal/mol.K

 Total job time:  258.94s(wall), 257.90s(cpu)
        *  Thank you very much for using Q-Chem.  Have a nice day.  *
