 Q-Chem 5.0, Q-Chem, Inc., Pleasanton, CA (2017)
 Q-Chem 5.0.2 for Intel X86 EM64T Linux

User input:
--------------------------------------------------------------
$molecule
0 2
C        1.5392164198    0.3763251409   -0.3217286380
C        0.7237835684   -0.8635905406   -0.0442835533
C       -0.5074458727   -0.6176594570   -0.8565405900
C       -0.9455340254    0.6586030135    0.8685878199
C       -0.5961216257    0.9039027850   -0.5944888824
N        0.8252715345    1.3837320719   -0.6599124903
H        2.6182177406    0.4480398879   -0.1942212590
H        1.1915004950   -1.8454845596   -0.0217467856
H       -1.1723415282   -1.3004208282   -1.3646868535
H       -1.5403974969    1.2369562301    1.5616731288
H       -1.2656663429    1.5241724166   -1.1895266998
C       -0.3524882456   -0.6021520101    1.0151251099
H       -0.5445713777   -1.3393908764    1.7913703588
$end

$rem
method                b3lyp
basis                 6-31+g(d,p)
unrestricted          true
symmetry              off
sym_ignore            true
incdft                false
incfock               0
scf_convergence       8
thresh                14
jobtype               freq
scf_guess             read
scf_algorithm         diis
max_scf_cycles        100
$end

--------------------------------------------------------------

             Standard Nuclear Orientation (Angstroms)
    I     Atom           X                Y                Z
 ----------------------------------------------------------------
    1      C       1.5392164198     0.3763251409    -0.3217286380
    2      C       0.7237835684    -0.8635905406    -0.0442835533
    3      C      -0.5074458727    -0.6176594570    -0.8565405900
    4      C      -0.9455340254     0.6586030135     0.8685878199
    5      C      -0.5961216257     0.9039027850    -0.5944888824
    6      N       0.8252715345     1.3837320719    -0.6599124903
    7      H       2.6182177406     0.4480398879    -0.1942212590
    8      H       1.1915004950    -1.8454845596    -0.0217467856
    9      H      -1.1723415282    -1.3004208282    -1.3646868535
   10      H      -1.5403974969     1.2369562301     1.5616731288
   11      H      -1.2656663429     1.5241724166    -1.1895266998
   12      C      -0.3524882456    -0.6021520101     1.0151251099
   13      H      -0.5445713777    -1.3393908764     1.7913703588
 ----------------------------------------------------------------

    2    -286.8437711291      1.68E-09 Convergence criterion met
 Total energy in the final basis set = -286.84377113

                    Orbital Energies (a.u.)
 --------------------------------------------------------------

 Alpha MOs
 -- Occupied --
-14.334 -10.233 -10.231 -10.228 -10.226 -10.222 -10.199  -0.969
 -0.850  -0.750  -0.690  -0.601  -0.587  -0.546  -0.524  -0.475
 -0.435  -0.419  -0.409  -0.386  -0.352  -0.307  -0.286  -0.266
 -0.153

 Beta MOs
 -- Occupied --
-14.334 -10.236 -10.232 -10.228 -10.225 -10.214 -10.190  -0.966
 -0.845  -0.743  -0.680  -0.597  -0.578  -0.543  -0.516  -0.469
 -0.431  -0.414  -0.407  -0.384  -0.346  -0.292  -0.276  -0.262

          Ground-State Mulliken Net Atomic Charges

     Atom                 Charge (a.u.)    Spin (a.u.)
  --------------------------------------------------------
      1 C                    -0.063479       0.042303
      2 C                    -0.022306      -0.028306
      3 C                    -0.277292       0.641150
      4 C                    -0.140826       0.735394
      5 C                     0.021936      -0.124467
      6 N                    -0.208160      -0.002389
      7 H                     0.134757       0.001283
      8 H                     0.131594       0.004007
      9 H                     0.148899      -0.029127
     10 H                     0.138317      -0.028055
     11 H                     0.130614       0.009010
     12 C                    -0.134312      -0.234075
     13 H                     0.140258       0.013272
  --------------------------------------------------------
  Sum of atomic charges =    -0.000000

                    Cartesian Multipole Moments
 -----------------------------------------------------------------
    Charge (ESU x 10^10)
                -0.0000
    Dipole Moment (Debye)
         X      -0.6586      Y      -2.7408      Z       0.8045
       Tot       2.9313
    Quadrupole Moments (Debye-Ang)
        XX     -39.2998     XY      -3.8425     YY     -44.0170
        XZ       1.4543     YZ       0.7963     ZZ     -42.1054

 Frequency:      -761.88                 302.46                 365.74
 Force Cnst:      1.7423                 0.0642                 0.0863
 Red. Mass:       5.0946                 1.1902                 1.0946
 IR Intens:       67.122                 13.146                 36.765
 Frequency:       454.00                 474.87                 587.80
 Force Cnst:      0.5163                 0.5218                 0.7418
 Red. Mass:       4.2511                 3.9271                 3.6442
 IR Intens:       10.961                 12.288                  3.416
 Frequency:       716.64                 783.58                 811.51
 Force Cnst:      2.1126                 1.8944                 0.8910
 Red. Mass:       6.9817                 5.2365                 2.2963
 IR Intens:        0.795                  6.666                  5.299
 Frequency:       858.77                 874.65                 899.49
 Force Cnst:      1.3119                 1.1922                 0.8844
 Red. Mass:       3.0193                 2.6450                 1.8553
 IR Intens:        6.881                 23.730                  4.388
 Frequency:       910.92                 921.09                 940.35
 Force Cnst:      0.9037                 1.0863                 1.1227
 Red. Mass:       1.8485                 2.1732                 2.1549
 IR Intens:        7.922                 12.513                  2.960
 Frequency:       962.09                1025.93                1085.65
 Force Cnst:      0.8883                 1.0851                 1.1583
 Red. Mass:       1.6289                 1.7498                 1.6680
 IR Intens:        7.093                  5.729                  5.582
 Frequency:      1139.12                1185.83                1218.97
 Force Cnst:      1.3126                 1.7959                 1.1864
 Red. Mass:       1.7169                 2.1676                 1.3552
 IR Intens:        4.832                  5.200                  1.986
 Frequency:      1263.94                1283.21                1306.99
 Force Cnst:      1.1533                 1.3916                 2.0053
 Red. Mass:       1.2253                 1.4344                 1.9925
 IR Intens:        1.050                  3.580                 15.157
 Frequency:      1322.97                1408.36                1651.07
 Force Cnst:      1.6074                 3.1170                12.7178
 Red. Mass:       1.5588                 2.6672                 7.9183
 IR Intens:       19.971                  1.972                 27.251
 Frequency:      3149.93                3164.38                3174.67
 Force Cnst:      6.3750                 6.4304                 6.4948
 Red. Mass:       1.0905                 1.0900                 1.0937
 IR Intens:       23.478                  5.640                 16.049
 Frequency:      3181.66                3258.38                3276.46
 Force Cnst:      6.5215                 6.8533                 6.9284
 Red. Mass:       1.0934                 1.0956                 1.0954
 IR Intens:       20.897                  1.159                  0.615

 STANDARD THERMODYNAMIC QUANTITIES AT   298.15 K  AND     1.00 ATM

   This Molecule has  1 Imaginary Frequencies
   Zero point vibrational energy:       62.846 kcal/mol

   Atom    1 Element C  Has Mass   12.00000
   Atom    2 Element C  Has Mass   12.00000
   Atom    3 Element C  Has Mass   12.00000
   Atom    4 Element C  Has Mass   12.00000
   Atom    5 Element C  Has Mass   12.00000
   Atom    6 Element N  Has Mass   14.00307
   Atom    7 Element H  Has Mass    1.00783
   Atom    8 Element H  Has Mass    1.00783
   Atom    9 Element H  Has Mass    1.00783
   Atom   10 Element H  Has Mass    1.00783
   Atom   11 Element H  Has Mass    1.00783
   Atom   12 Element C  Has Mass   12.00000
   Atom   13 Element H  Has Mass    1.00783
   Molecular Mass:    92.050050 amu
   Principal axes and moments of inertia in amu*Bohr^2:
                             1           2           3
    Eigenvalues --      377.19542   457.49501   569.86416
          X               0.75733    -0.53238     0.37818
          Y               0.43251     0.84281     0.32032
          Z              -0.48927    -0.07902     0.86855
   Rotational Symmetry Number is   1
   The Molecule is an Asymmetric Top
   Translational Enthalpy:        0.889 kcal/mol
   Rotational Enthalpy:           0.889 kcal/mol
   Vibrational Enthalpy:         64.248 kcal/mol
   gas constant (RT):             0.592 kcal/mol
   Translational Entropy:        39.471  cal/mol.K
   Rotational Entropy:           26.089  cal/mol.K
   Vibrational Entropy:           6.556  cal/mol.K

   Total Enthalpy:               66.618 kcal/mol
   Total Entropy:                72.116  cal/mol.K

 Total job time:  559.72s(wall), 557.48s(cpu)
        *  Thank you very much for using Q-Chem.  Have a nice day.  *
