 Q-Chem 5.0, Q-Chem, Inc., Pleasanton, CA (2017)
 Q-Chem 5.0.2 for Intel X86 EM64T Linux

User input:
--------------------------------------------------------------
$molecule
0 2
C        1.1257872283    0.1915103642    0.4753344904
C        0.8530562582   -0.9771834436   -0.4844585579
C       -0.4708821211   -0.9917798802   -0.7112761441
C       -1.0733753324    0.1689504635    0.1058247809
C       -0.4268768735    1.4516272469   -0.4559746898
N        0.8343480124    1.4888641751   -0.2636226176
H        2.1013688013    0.2175611497    0.9584965789
H        1.6121067179   -1.6257873646   -0.9077038328
H       -1.0351172358   -1.6489404257   -1.3639214750
H       -2.1544426050    0.1672496931    0.2459404249
H       -0.9623959612    2.2384269214   -0.9846100443
C       -0.1373892975    0.0439136282    1.3126277610
H       -0.2661875919   -0.7244125280    2.0733433255
$end

$rem
method                b3lyp
basis                 6-31g(d)
unrestricted          true
symmetry              off
sym_ignore            true
incdft                false
incfock               0
scf_convergence       8
thresh                14
jobtype               opt
scf_guess             read
scf_algorithm         diis
max_scf_cycles        100
geom_opt_tol_gradient 600
geom_opt_tol_displacement 2400
geom_opt_tol_energy   200
geom_opt_max_cycles   100
$end

--------------------------------------------------------------

    2    -286.8516580738      5.90E-10 Convergence criterion met
 Total energy in the final basis set = -286.85165807

             Standard Nuclear Orientation (Angstroms)
    I     Atom           X                Y                Z
 ----------------------------------------------------------------
    1      C       1.1253702870     0.1920950601     0.4743433767
    2      C       0.8533717523    -0.9776539942    -0.4842005046
    3      C      -0.4698094632    -0.9909647918    -0.7128212184
    4      C      -1.0729618534     0.1686642914     0.1055590181
    5      C      -0.4274386057     1.4520038294    -0.4557136740
    6      N       0.8340962488     1.4879844331    -0.2674507403
    7      H       2.1007683218     0.2173083589     0.9579104827
    8      H       1.6121936059    -1.6284281515    -0.9045561464
    9      H      -1.0338421727    -1.6490128938    -1.3648590015
   10      H      -2.1538831497     0.1670292269     0.2462834926
   11      H      -0.9636114431     2.2408062183    -0.9806782906
   12      C      -0.1377589984     0.0443221894     1.3128295991
   13      H      -0.2664945299    -0.7241537761     2.0733536067
 ----------------------------------------------------------------

   11    -286.8516594834      9.28E-09 Convergence criterion met
 Total energy in the final basis set = -286.85165948
 Final energy is   -286.851659483367
 **  OPTIMIZATION CONVERGED  **

                    Orbital Energies (a.u.)
 --------------------------------------------------------------

 Alpha MOs
 -- Occupied --
-14.322 -10.224 -10.220 -10.210 -10.204 -10.201 -10.197  -0.952
 -0.821  -0.726  -0.705  -0.579  -0.573  -0.531  -0.512  -0.472
 -0.418  -0.410  -0.381  -0.373  -0.348  -0.294  -0.271  -0.258
 -0.196

 Beta MOs
 -- Occupied --
-14.321 -10.224 -10.221 -10.210 -10.200 -10.196 -10.190  -0.949
 -0.815  -0.725  -0.690  -0.577  -0.561  -0.527  -0.509  -0.463
 -0.414  -0.406  -0.379  -0.369  -0.342  -0.287  -0.261  -0.255

          Ground-State Mulliken Net Atomic Charges

     Atom                 Charge (a.u.)    Spin (a.u.)
  --------------------------------------------------------
      1 C                    -0.094562      -0.044996
      2 C                    -0.087968       0.039972
      3 C                    -0.095724       0.079762
      4 C                    -0.246146      -0.043958
      5 C                     0.092282      -0.008902
      6 N                    -0.325207       0.022070
      7 H                     0.139778       0.003026
      8 H                     0.146099       0.000895
      9 H                     0.145529       0.000311
     10 H                     0.133881       0.002855
     11 H                     0.149662      -0.000169
     12 C                    -0.096520       0.975669
     13 H                     0.138895      -0.026536
  --------------------------------------------------------
  Sum of atomic charges =    -0.000000

                    Cartesian Multipole Moments
 -----------------------------------------------------------------
    Charge (ESU x 10^10)
                 0.0000
    Dipole Moment (Debye)
         X      -1.4509      Y      -1.8745      Z      -0.1280
       Tot       2.3738
    Quadrupole Moments (Debye-Ang)
        XX     -38.2778     XY      -4.0479     YY     -42.6393
        XZ       1.9417     YZ       0.2012     ZZ     -40.5602

 Total job time:  13.63s(wall), 49.81s(cpu)
        *  Thank you very much for using Q-Chem.  Have a nice day.  *
