 Q-Chem 5.0, Q-Chem, Inc., Pleasanton, CA (2017)
 Q-Chem 5.0.2 for Intel X86 EM64T Linux

User input:
--------------------------------------------------------------
$molecule
0 2
C        1.3391982006    0.8949661606   -0.5132029640
C        0.2986262970   -1.4060198555   -0.2409339399
C       -0.9094341894   -1.0965453261    0.3087215996
C       -1.4023215397    0.2190729393    0.6293318866
C       -0.7723250425    1.4351560426    0.4481363436
N        0.4355386852    1.7898203683   -0.0521552341
H        2.2496294514    1.3812045761   -0.8709498022
H        0.5110239971   -2.4584455753   -0.4185099411
H       -1.5814082475   -1.9223273493    0.5336194848
H       -2.3961128600    0.2657600052    1.0682431779
H       -1.3513514400    2.3037290084    0.7693430691
C        1.3396267696   -0.4842078085   -0.6180921256
H        2.2393099178   -0.9221631860   -1.0435515545
$end

$rem
method                b3lyp
basis                 6-31g(d)
unrestricted          true
symmetry              off
sym_ignore            true
incdft                false
incfock               0
scf_convergence       8
thresh                14
jobtype               opt
scf_guess             read
scf_algorithm         diis
max_scf_cycles        100
geom_opt_tol_gradient 600
geom_opt_tol_displacement 2400
geom_opt_tol_energy   200
geom_opt_max_cycles   100
$end

--------------------------------------------------------------

    2    -286.9243409348      1.14E-09 Convergence criterion met
 Total energy in the final basis set = -286.92434093

             Standard Nuclear Orientation (Angstroms)
    I     Atom           X                Y                Z
 ----------------------------------------------------------------
    1      C       1.3393484085     0.8948266760    -0.5129564032
    2      C       0.2988286337    -1.4057968190    -0.2410157186
    3      C      -0.9092744684    -1.0964131649     0.3087977601
    4      C      -1.4025453035     0.2191269888     0.6289893222
    5      C      -0.7719712664     1.4351836425     0.4490174959
    6      N       0.4358955325     1.7895997142    -0.0509182224
    7      H       2.2495165506     1.3811631573    -0.8711293923
    8      H       0.5111977017    -2.4583094495    -0.4179942847
    9      H      -1.5808473192    -1.9223572286     0.5343250996
   10      H      -2.3966321301     0.2656924092     1.0671657855
   11      H      -1.3516165625     2.3038603372     0.7689373652
   12      C       1.3390917411    -0.4839680790    -0.6194401031
   13      H       2.2390084816    -0.9226081844    -1.0437787040
 ----------------------------------------------------------------

   12    -286.9243420142      6.75E-09 Convergence criterion met
 Total energy in the final basis set = -286.92434201
 Final energy is   -286.924342014205
 **  OPTIMIZATION CONVERGED  **

                    Orbital Energies (a.u.)
 --------------------------------------------------------------

 Alpha MOs
 -- Occupied --
-14.322 -10.232 -10.232 -10.212 -10.211 -10.201 -10.200  -0.922
 -0.818  -0.784  -0.693  -0.667  -0.551  -0.537  -0.518  -0.449
 -0.439  -0.414  -0.394  -0.387  -0.349  -0.322  -0.299  -0.251
 -0.162

 Beta MOs
 -- Occupied --
-14.314 -10.234 -10.233 -10.210 -10.210 -10.196 -10.196  -0.911
 -0.809  -0.777  -0.681  -0.665  -0.546  -0.535  -0.514  -0.447
 -0.438  -0.411  -0.383  -0.373  -0.348  -0.295  -0.276  -0.241

          Ground-State Mulliken Net Atomic Charges

     Atom                 Charge (a.u.)    Spin (a.u.)
  --------------------------------------------------------
      1 C                     0.035831      -0.114775
      2 C                    -0.110840       0.089250
      3 C                    -0.111733       0.098205
      4 C                    -0.130875       0.343292
      5 C                     0.034959      -0.110461
      6 N                    -0.423210       0.386978
      7 H                     0.142609       0.003508
      8 H                     0.141990      -0.006421
      9 H                     0.141900      -0.006850
     10 H                     0.134376      -0.018161
     11 H                     0.142629       0.003296
     12 C                    -0.131961       0.350641
     13 H                     0.134325      -0.018504
  --------------------------------------------------------
  Sum of atomic charges =     0.000000

                    Cartesian Multipole Moments
 -----------------------------------------------------------------
    Charge (ESU x 10^10)
                -0.0000
    Dipole Moment (Debye)
         X      -0.5299      Y      -2.1793      Z       0.0614
       Tot       2.2437
    Quadrupole Moments (Debye-Ang)
        XX     -36.1696     XY      -1.5927     YY     -41.9487
        XZ      -3.2524     YZ       0.8155     ZZ     -41.8817

 Total job time:  56.98s(wall), 54.80s(cpu)
        *  Thank you very much for using Q-Chem.  Have a nice day.  *
