 Q-Chem 5.0, Q-Chem, Inc., Pleasanton, CA (2017)
 Q-Chem 5.0.2 for Intel X86 EM64T Linux

User input:
--------------------------------------------------------------
$molecule
0 2
C        1.6275208656    0.3388165904   -0.3025239701
C        1.1398763554   -0.9438103089   -0.4730325191
C       -0.2057285338   -1.4173079962   -0.2706573326
C       -1.2783643897   -0.6846921986    0.1422835657
C       -0.2472334035    1.6192674999    0.4206524854
N        1.0599169531    1.5054969870    0.0841605408
H        2.6905909706    0.4560962210   -0.5241435773
H        1.8676799238   -1.6816847037   -0.8031711638
H       -0.3721805494   -2.4736071504   -0.4726346800
H       -2.2289009435   -1.2046825637    0.2416831057
H       -0.5062034222    2.6402763480    0.7111212926
C       -1.2948735157    0.7191902312    0.4653743436
H       -2.2521003108    1.1266410446    0.7808879094
$end

$rem
method                b3lyp
basis                 6-31g(d)
unrestricted          true
symmetry              off
sym_ignore            true
incdft                false
incfock               0
scf_convergence       8
thresh                14
jobtype               opt
scf_guess             read
scf_algorithm         diis
max_scf_cycles        100
geom_opt_tol_gradient 600
geom_opt_tol_displacement 2400
geom_opt_tol_energy   200
geom_opt_max_cycles   100
$end

--------------------------------------------------------------

    2    -286.9243436157      6.03E-10 Convergence criterion met
 Total energy in the final basis set = -286.92434362
   11    -286.9243477216      5.26E-09 Convergence criterion met
 Total energy in the final basis set = -286.92434772

             Standard Nuclear Orientation (Angstroms)
    I     Atom           X                Y                Z
 ----------------------------------------------------------------
    1      C       1.6282024676     0.3391485899    -0.3018253504
    2      C       1.1392054177    -0.9423347504    -0.4745887587
    3      C      -0.2056161073    -1.4170300364    -0.2710164278
    4      C      -1.2783046124    -0.6850616552     0.1428788334
    5      C      -0.2470006477     1.6188856289     0.4198220256
    6      N       1.0608099922     1.5038933086     0.0886918167
    7      H       2.6915892333     0.4565744353    -0.5220611442
    8      H       1.8640443016    -1.6816189085    -0.8068064342
    9      H      -0.3705711301    -2.4736967268    -0.4718858104
   10      H      -2.2280015850    -1.2064428943     0.2449535067
   11      H      -0.5064907913     2.6397490057     0.7086155453
   12      C      -1.2954761747     0.7196520702     0.4636563522
   13      H      -2.2523903640     1.1282819335     0.7795658460
 ----------------------------------------------------------------

   13    -286.9243486292      5.95E-09 Convergence criterion met
 Total energy in the final basis set = -286.92434863
 Final energy is   -286.924348629217
 **  OPTIMIZATION CONVERGED  **

                    Orbital Energies (a.u.)
 --------------------------------------------------------------

 Alpha MOs
 -- Occupied --
-14.322 -10.232 -10.232 -10.212 -10.211 -10.201 -10.200  -0.922
 -0.818  -0.784  -0.693  -0.667  -0.551  -0.537  -0.518  -0.449
 -0.439  -0.414  -0.394  -0.386  -0.349  -0.322  -0.299  -0.251
 -0.162

 Beta MOs
 -- Occupied --
-14.314 -10.233 -10.233 -10.210 -10.210 -10.196 -10.196  -0.911
 -0.809  -0.777  -0.681  -0.665  -0.546  -0.535  -0.514  -0.447
 -0.438  -0.411  -0.383  -0.373  -0.348  -0.295  -0.276  -0.241

          Ground-State Mulliken Net Atomic Charges

     Atom                 Charge (a.u.)    Spin (a.u.)
  --------------------------------------------------------
      1 C                     0.036034      -0.113579
      2 C                    -0.132001       0.348644
      3 C                    -0.111011       0.091648
      4 C                    -0.111526       0.095897
      5 C                     0.035313      -0.111590
      6 N                    -0.423389       0.386842
      7 H                     0.142553       0.003449
      8 H                     0.134370      -0.018411
      9 H                     0.141972      -0.006535
     10 H                     0.141910      -0.006740
     11 H                     0.142660       0.003352
     12 C                    -0.131242       0.345278
     13 H                     0.134357      -0.018255
  --------------------------------------------------------
  Sum of atomic charges =    -0.000000

                    Cartesian Multipole Moments
 -----------------------------------------------------------------
    Charge (ESU x 10^10)
                 0.0000
    Dipole Moment (Debye)
         X      -1.2916      Y      -1.8316      Z      -0.1081
       Tot       2.2438
    Quadrupole Moments (Debye-Ang)
        XX     -37.4025     XY      -3.3668     YY     -40.0741
        XZ      -2.1307     YZ       1.5300     ZZ     -42.5222

 Total job time:  38.15s(wall), 91.75s(cpu)
        *  Thank you very much for using Q-Chem.  Have a nice day.  *
