 Q-Chem 5.0, Q-Chem, Inc., Pleasanton, CA (2017)
 Q-Chem 5.0.2 for Intel X86 EM64T Linux

User input:
--------------------------------------------------------------
$molecule
0 2
C        1.9264100456    0.3340818496   -0.3727057977
C        1.3269693829   -0.9246925741   -0.5166055722
C       -0.0208359135   -1.0632234355   -0.2329872462
C       -0.7678823564    0.0698097038    0.1958417708
C       -0.0354702396    1.2928704363    0.2996329075
N        1.2557163634    1.4288904970    0.0301808222
H        2.9839988904    0.4726357404   -0.5874733645
H        1.9189398658   -1.7743469665   -0.8450643887
H       -0.5165920460   -2.0258672424   -0.3324985516
H       -2.6950192372   -0.9139345666    0.4224397013
H       -0.5598352553    2.1927470441    0.6224316899
C       -2.1380218995    0.0131249498    0.4983231146
H       -2.6783776005    0.8979045641    0.8184849146
$end

$rem
method                b3lyp
basis                 6-31g(d)
unrestricted          true
symmetry              off
sym_ignore            true
incdft                false
incfock               0
scf_convergence       8
thresh                14
jobtype               opt
scf_guess             read
scf_algorithm         diis
max_scf_cycles        100
geom_opt_tol_gradient 600
geom_opt_tol_displacement 2400
geom_opt_tol_energy   200
geom_opt_max_cycles   100
$end

--------------------------------------------------------------

    2    -286.9514648084      1.09E-09 Convergence criterion met
 Total energy in the final basis set = -286.95146481

             Standard Nuclear Orientation (Angstroms)
    I     Atom           X                Y                Z
 ----------------------------------------------------------------
    1      C       1.9264919429     0.3341438713    -0.3725671826
    2      C       1.3271726359    -0.9248928223    -0.5152608695
    3      C      -0.0208623631    -1.0632719535    -0.2330709155
    4      C      -0.7681367201     0.0703029429     0.1944619249
    5      C      -0.0357037267     1.2934144114     0.2990745276
    6      N       1.2554965924     1.4291635361     0.0293842495
    7      H       2.9840400223     0.4723531528    -0.5878921831
    8      H       1.9190809235    -1.7745718945    -0.8438053476
    9      H      -0.5167455919    -2.0256206565    -0.3336767212
   10      H      -2.6957699378    -0.9150569764     0.4214521344
   11      H      -0.5596661236     2.1931749119     0.6227801060
   12      C      -2.1382731857     0.0128661816     0.4986191844
   13      H      -2.6771244679     0.8979952952     0.8205010927
 ----------------------------------------------------------------

   10    -286.9514671720      7.89E-09 Convergence criterion met
 Total energy in the final basis set = -286.95146717
 Final energy is   -286.951467172026
 **  OPTIMIZATION CONVERGED  **

                    Orbital Energies (a.u.)
 --------------------------------------------------------------

 Alpha MOs
 -- Occupied --
-14.330 -10.226 -10.224 -10.210 -10.208 -10.203 -10.200  -0.940
 -0.818  -0.778  -0.695  -0.631  -0.601  -0.521  -0.493  -0.468
 -0.425  -0.415  -0.403  -0.401  -0.367  -0.315  -0.283  -0.252
 -0.193

 Beta MOs
 -- Occupied --
-14.332 -10.223 -10.220 -10.211 -10.206 -10.201 -10.193  -0.939
 -0.813  -0.772  -0.677  -0.627  -0.594  -0.517  -0.491  -0.465
 -0.422  -0.410  -0.399  -0.394  -0.365  -0.295  -0.270  -0.254

          Ground-State Mulliken Net Atomic Charges

     Atom                 Charge (a.u.)    Spin (a.u.)
  --------------------------------------------------------
      1 C                     0.030635       0.270171
      2 C                    -0.134484      -0.134807
      3 C                    -0.156635       0.247220
      4 C                     0.208722      -0.200731
      5 C                    -0.008399       0.242320
      6 N                    -0.402195      -0.110379
      7 H                     0.143453      -0.014129
      8 H                     0.138663       0.005319
      9 H                     0.139944      -0.011468
     10 H                     0.152009      -0.038391
     11 H                     0.140222      -0.012064
     12 C                    -0.407156       0.795156
     13 H                     0.155221      -0.038216
  --------------------------------------------------------
  Sum of atomic charges =     0.000000

                    Cartesian Multipole Moments
 -----------------------------------------------------------------
    Charge (ESU x 10^10)
                -0.0000
    Dipole Moment (Debye)
         X      -1.0175      Y      -1.8582      Z      -0.1811
       Tot       2.1262
    Quadrupole Moments (Debye-Ang)
        XX     -37.5351     XY      -3.6130     YY     -40.7300
        XZ      -2.1598     YZ       1.4206     ZZ     -42.5151

 Total job time:  20.93s(wall), 48.56s(cpu)
        *  Thank you very much for using Q-Chem.  Have a nice day.  *
