 Q-Chem 5.0, Q-Chem, Inc., Pleasanton, CA (2017)
 Q-Chem 5.0.2 for Intel X86 EM64T Linux

User input:
--------------------------------------------------------------
$molecule
0 2
C        1.2032459294    0.3391973390    0.3346105013
C        0.6649579777   -1.0858932313   -0.1429279517
C       -0.6133864524   -0.9512136048   -0.8278617436
C       -1.0806369947    0.1427653032    0.1297581032
C       -0.5136885281    1.4332116739   -0.4500366488
N        0.7652460932    1.5123490674   -0.3791405000
H        2.2197977028    0.3338952738    0.7145726306
H        1.3728809849   -1.9078290518   -0.1830612541
H       -0.9309221282   -1.1924953842   -1.8395863126
H       -2.1198405083    0.1493128295    0.4658743792
H       -1.1029750191    2.1657020476   -0.9994903586
C        0.0918671170   -0.3235255426    1.0662567220
H        0.0434538265   -0.6154767204    2.1110324324
****
C        0.6989420174    0.0034297681    0.1591628452
C        0.8882504103   -1.1649876204   -0.7908505585
C        0.1779843411   -2.2681388692   -0.7942033658
C       -1.2100029678    1.0968853981    0.8268774752
C       -0.4546652715    1.8523425712   -0.1834419154
N        0.6209957850    1.2691278454   -0.5923431271
H        1.6034670623    0.0770750919    0.7886398945
H        1.6962339632   -1.0188471679   -1.5172037137
H        0.1533738980   -3.1907709279   -1.3602779664
H       -2.1364600187    1.4131728855    1.2928203771
H       -0.7462706190    2.8259806959   -0.5757869040
C       -0.5239274543   -0.0408790471    1.0370675996
H       -0.7679211460   -0.8543906236    1.7095393592
$end

$rem
method                b3lyp
basis                 6-31g(d)
unrestricted          true
symmetry              off
sym_ignore            true
incdft                false
incfock               0
scf_convergence       8
thresh                14
jobtype               fsm
scf_guess             core
scf_guess_mix         5
scf_algorithm         diis
max_scf_cycles        100
fsm_nnode             21
fsm_ngrad             6
fsm_mode              2
fsm_opt_mode          2
$end

--------------------------------------------------------------

   20    -286.8383073047      8.09E-09 Convergence criterion met
 Total energy in the final basis set = -286.83830730
   22    -286.8505365558      5.71E-09 Convergence criterion met
 Total energy in the final basis set = -286.85053656
   21    -286.8315946319      9.17E-09 Convergence criterion met
 Total energy in the final basis set = -286.83159463
   22    -286.8339384605      2.41E-09 Convergence criterion met
 Total energy in the final basis set = -286.83393846
   22    -286.8498511533      7.69E-09 Convergence criterion met
 Total energy in the final basis set = -286.84985115
   21    -286.8485525790      6.43E-09 Convergence criterion met
 Total energy in the final basis set = -286.84855258
   22    -286.8474753050      8.95E-09 Convergence criterion met
 Total energy in the final basis set = -286.84747530
   22    -286.8495976456      8.41E-09 Convergence criterion met
 Total energy in the final basis set = -286.77754095
   20    -286.7783763061      9.88E-09 Convergence criterion met
 Total energy in the final basis set = -286.77837631
   21    -286.7775646713      4.62E-09 Convergence criterion met
 Total energy in the final basis set = -286.77756467
   21    -286.7783543206      5.30E-09 Convergence criterion met
 Total energy in the final basis set = -286.77835432
   21    -286.7776096729      4.39E-09 Convergence criterion met
 Total energy in the final basis set = -286.77760967
   21    -286.7783115165      4.61E-09 Convergence criterion met
 Total energy in the final basis set = -286.77831152
   21    -286.7776500121      4.42E-09 Convergence criterion met
 Total energy in the final basis set = -286.77765001
   21    -286.7782727492      4.33E-09 Convergence criterion met
 Total energy in the final basis set = -286.77827275

                    Orbital Energies (a.u.)
 --------------------------------------------------------------

 Alpha MOs
 -- Occupied --
-14.316 -10.229 -10.224 -10.221 -10.219 -10.218 -10.218  -0.962
 -0.840  -0.732  -0.694  -0.590  -0.580  -0.535  -0.512  -0.460
 -0.421  -0.407  -0.397  -0.375  -0.328  -0.286  -0.272  -0.263
 -0.157

 Beta MOs
 -- Occupied --
-14.316 -10.229 -10.223 -10.220 -10.218 -10.215 -10.205  -0.959
 -0.833  -0.730  -0.681  -0.584  -0.575  -0.530  -0.507  -0.452
 -0.418  -0.402  -0.394  -0.372  -0.313  -0.277  -0.266  -0.254

          Ground-State Mulliken Net Atomic Charges

     Atom                 Charge (a.u.)    Spin (a.u.)
  --------------------------------------------------------
      1 C                     0.006427       0.028374
      2 C                    -0.166747      -0.149252
      3 C                    -0.109149       0.792208
      4 C                    -0.249121      -0.073280
      5 C                     0.081383       0.041631
      6 N                    -0.337283       0.024207
      7 H                     0.150380       0.003749
      8 H                     0.161030       0.004953
      9 H                     0.134654       0.013695
     10 H                     0.141884       0.003789
     11 H                     0.143488      -0.001279
     12 C                    -0.122841       0.325694
     13 H                     0.165896      -0.014488
  --------------------------------------------------------
  Sum of atomic charges =     0.000000

                    Cartesian Multipole Moments
 -----------------------------------------------------------------
    Charge (ESU x 10^10)
                -0.0000
    Dipole Moment (Debye)
         X      -0.6121      Y      -1.3485      Z       1.2090
       Tot       1.9118
    Quadrupole Moments (Debye-Ang)
        XX     -39.3653     XY      -5.4937     YY     -42.7224
        XZ       0.9021     YZ       1.3367     ZZ     -39.4789

             Standard Nuclear Orientation (Angstroms)
    I     Atom           X                Y                Z
 ----------------------------------------------------------------
    1      C       1.1448619693     0.2990204162     0.3318043357
    2      C       0.7015740380    -1.0530624457    -0.2849181546
    3      C      -0.6006330937    -1.1336764146    -0.8281514810
    4      C      -1.1225918345     0.2586374771     0.1745699249
    5      C      -0.5028003934     1.4800157619    -0.4267679966
    6      N       0.7877521199     1.4829284343    -0.3928005104
    7      H       2.1150813374     0.2901460171     0.8052963072
    8      H       1.5469438729    -1.6940171163    -0.5365776852
    9      H      -0.8251969367    -1.7653182510    -1.7139319785
   10      H      -2.1218070397     0.4374985998     0.6211094714
   11      H      -1.0314989926     2.3190617285    -0.8968015336
   12      C      -0.0165339895    -0.2528354337     1.0686326778
   13      H      -0.1185237522    -0.6966530407     2.0474926599
 ----------------------------------------------------------------

 Total job time:  988.90s(wall), 3739.70s(cpu)
        *  Thank you very much for using Q-Chem.  Have a nice day.  *
