 Q-Chem 5.0, Q-Chem, Inc., Pleasanton, CA (2017)
 Q-Chem 5.0.2 for Intel X86 EM64T Linux

User input:
--------------------------------------------------------------
$molecule
0 2
C        1.1765739846    0.2841915378    0.3673198532
C        0.7645724161   -0.9992421186   -0.3524262301
C       -0.5556124114   -0.9322060329   -0.8198171957
C       -1.0775357045    0.1591578107    0.1126633696
C       -0.4838009420    1.4614867737   -0.4308332550
N        0.7935170019    1.5227590369   -0.3250521132
H        2.1730477493    0.2851892528    0.8020325173
H        1.4794242213   -1.8037937785   -0.5077299310
H       -1.0651906309   -1.5244964285   -1.5678084166
H       -2.1351799942    0.1486692953    0.3774027606
H       -1.0525514937    2.2177302121   -0.9695750721
C        0.0071944864   -0.1893181727    1.1559297967
H       -0.0678313775   -0.6583816552    2.1268499531
$end

$rem
method                b3lyp
basis                 6-31+g(d,p)
unrestricted          true
symmetry              off
sym_ignore            true
incdft                false
incfock               0
scf_convergence       8
thresh                14
jobtype               ts
scf_guess             read
scf_algorithm         diis
max_scf_cycles        100
geom_opt_max_cycles   500
geom_opt_dmax         100
geom_opt_tol_gradient 10
geom_opt_hessian      read
$end

--------------------------------------------------------------

    2    -286.8475023277      9.37E-10 Convergence criterion met
 Total energy in the final basis set = -286.84750233
   13    -286.8475381445      3.40E-09 Convergence criterion met
 Total energy in the final basis set = -286.84753814
   12    -286.8475423390      6.83E-09 Convergence criterion met
 Total energy in the final basis set = -286.84754234

             Standard Nuclear Orientation (Angstroms)
    I     Atom           X                Y                Z
 ----------------------------------------------------------------
    1      C       1.1779031116     0.2840944244     0.3689960102
    2      C       0.7676713006    -0.9972239665    -0.3571738784
    3      C      -0.5530491205    -0.9266570571    -0.8295145818
    4      C      -1.0772296443     0.1603414448     0.1071820102
    5      C      -0.4849925830     1.4655012319    -0.4297986839
    6      N       0.7935087085     1.5245718443    -0.3171320011
    7      H       2.1730474453     0.2829729468     0.8041510424
    8      H       1.4809258936    -1.8021782831    -0.5110664618
    9      H      -1.0736281102    -1.5425663514    -1.5493331602
   10      H      -2.1346407866     0.1481677277     0.3693341658
   11      H      -1.0515168464     2.2247759025    -0.9646693744
   12      C       0.0078438060    -0.1986748046     1.1496575872
   13      H      -0.0692158692    -0.6513793268     2.1283233625
 ----------------------------------------------------------------

    9    -286.8475423808      5.86E-09 Convergence criterion met
 Total energy in the final basis set = -286.84754238
 Final energy is   -286.847542380843
 **  OPTIMIZATION CONVERGED  **

                    Orbital Energies (a.u.)
 --------------------------------------------------------------

 Alpha MOs
 -- Occupied --
-14.330 -10.235 -10.230 -10.229 -10.226 -10.221 -10.206  -0.972
 -0.849  -0.751  -0.696  -0.601  -0.585  -0.548  -0.522  -0.472
 -0.444  -0.424  -0.409  -0.378  -0.356  -0.296  -0.284  -0.277
 -0.157

 Beta MOs
 -- Occupied --
-14.329 -10.235 -10.231 -10.230 -10.222 -10.217 -10.197  -0.968
 -0.842  -0.747  -0.684  -0.598  -0.577  -0.541  -0.519  -0.463
 -0.441  -0.419  -0.407  -0.373  -0.351  -0.287  -0.275  -0.265

          Ground-State Mulliken Net Atomic Charges

     Atom                 Charge (a.u.)    Spin (a.u.)
  --------------------------------------------------------
      1 C                    -0.133191      -0.021292
      2 C                    -0.103043      -0.233740
      3 C                    -0.141175       0.728695
      4 C                     0.002612      -0.101964
      5 C                    -0.070296      -0.002356
      6 N                    -0.179666       0.062413
      7 H                     0.138959       0.004313
      8 H                     0.139224       0.010302
      9 H                     0.139082      -0.028844
     10 H                     0.129090       0.010582
     11 H                     0.132712       0.001552
     12 C                    -0.200204       0.594695
     13 H                     0.145897      -0.024357
  --------------------------------------------------------
  Sum of atomic charges =    -0.000000

                    Cartesian Multipole Moments
 -----------------------------------------------------------------
    Charge (ESU x 10^10)
                -0.0000
    Dipole Moment (Debye)
         X      -1.2887      Y      -2.0808      Z       0.8788
       Tot       2.6005
    Quadrupole Moments (Debye-Ang)
        XX     -38.8854     XY      -5.0411     YY     -44.9107
        XZ       2.2464     YZ       0.6036     ZZ     -41.5565

 Total job time:  67.18s(wall), 255.61s(cpu)
        *  Thank you very much for using Q-Chem.  Have a nice day.  *
