 Q-Chem 5.0, Q-Chem, Inc., Pleasanton, CA (2017)
 Q-Chem 5.0.2 for Intel X86 EM64T Linux

User input:
--------------------------------------------------------------
$molecule
0 2
C        1.1448619693    0.2990204162    0.3318043357
C        0.7015740380   -1.0530624457   -0.2849181546
C       -0.6006330937   -1.1336764146   -0.8281514810
C       -1.1225918345    0.2586374771    0.1745699249
C       -0.5028003934    1.4800157619   -0.4267679966
N        0.7877521199    1.4829284343   -0.3928005104
H        2.1150813374    0.2901460171    0.8052963072
H        1.5469438729   -1.6940171163   -0.5365776852
H       -0.8251969367   -1.7653182510   -1.7139319785
H       -2.1218070397    0.4374985998    0.6211094714
H       -1.0314989926    2.3190617285   -0.8968015336
C       -0.0165339895   -0.2528354337    1.0686326778
H       -0.1185237522   -0.6966530407    2.0474926599
$end

$rem
method                b3lyp
basis                 6-31g(d)
unrestricted          true
symmetry              off
sym_ignore            true
incdft                false
incfock               0
scf_convergence       8
thresh                14
jobtype               freq
scf_guess             read
scf_algorithm         diis
max_scf_cycles        100
$end

--------------------------------------------------------------

             Standard Nuclear Orientation (Angstroms)
    I     Atom           X                Y                Z
 ----------------------------------------------------------------
    1      C       1.1448619693     0.2990204162     0.3318043357
    2      C       0.7015740380    -1.0530624457    -0.2849181546
    3      C      -0.6006330937    -1.1336764146    -0.8281514810
    4      C      -1.1225918345     0.2586374771     0.1745699249
    5      C      -0.5028003934     1.4800157619    -0.4267679966
    6      N       0.7877521199     1.4829284343    -0.3928005104
    7      H       2.1150813374     0.2901460171     0.8052963072
    8      H       1.5469438729    -1.6940171163    -0.5365776852
    9      H      -0.8251969367    -1.7653182510    -1.7139319785
   10      H      -2.1218070397     0.4374985998     0.6211094714
   11      H      -1.0314989926     2.3190617285    -0.8968015336
   12      C      -0.0165339895    -0.2528354337     1.0686326778
   13      H      -0.1185237522    -0.6966530407     2.0474926599
 ----------------------------------------------------------------

    2    -286.7943188304      2.42E-09 Convergence criterion met
 Total energy in the final basis set = -286.79431883

                    Orbital Energies (a.u.)
 --------------------------------------------------------------

 Alpha MOs
 -- Occupied --
-14.316 -10.225 -10.224 -10.220 -10.217 -10.216 -10.214  -0.963
 -0.839  -0.734  -0.692  -0.590  -0.580  -0.536  -0.513  -0.462
 -0.425  -0.407  -0.398  -0.373  -0.330  -0.289  -0.269  -0.264
 -0.157

 Beta MOs
 -- Occupied --
-14.315 -10.226 -10.223 -10.217 -10.217 -10.215 -10.202  -0.959
 -0.832  -0.732  -0.679  -0.584  -0.574  -0.531  -0.508  -0.454
 -0.421  -0.402  -0.396  -0.369  -0.317  -0.279  -0.263  -0.254

          Ground-State Mulliken Net Atomic Charges

     Atom                 Charge (a.u.)    Spin (a.u.)
  --------------------------------------------------------
      1 C                     0.003550       0.037486
      2 C                    -0.166433      -0.147812
      3 C                    -0.101729       0.795388
      4 C                    -0.255210      -0.074576
      5 C                     0.084997       0.043448
      6 N                    -0.340229       0.025071
      7 H                     0.149626       0.004176
      8 H                     0.156359       0.005485
      9 H                     0.137324       0.003378
     10 H                     0.142548       0.006326
     11 H                     0.142782      -0.001145
     12 C                    -0.117621       0.316446
     13 H                     0.164038      -0.013670
  --------------------------------------------------------
  Sum of atomic charges =    -0.000000

                    Cartesian Multipole Moments
 -----------------------------------------------------------------
    Charge (ESU x 10^10)
                -0.0000
    Dipole Moment (Debye)
         X      -0.7819      Y      -1.4334      Z       1.1147
       Tot       1.9770
    Quadrupole Moments (Debye-Ang)
        XX     -39.0373     XY      -5.2784     YY     -43.0567
        XZ       1.1807     YZ       1.2805     ZZ     -39.3414

 Frequency:      -478.19                 -81.72                 412.61
 Force Cnst:      0.6573                 0.0188                 0.4796
 Red. Mass:       4.8790                 4.7886                 4.7808
 IR Intens:        1.582                  6.249                  1.075
 Frequency:       455.94                 582.75                 653.07
 Force Cnst:      0.3482                 0.4705                 0.3523
 Red. Mass:       2.8431                 2.3513                 1.4018
 IR Intens:        1.381                  7.219                 41.938
 Frequency:       705.04                 731.10                 804.95
 Force Cnst:      0.4429                 1.8040                 1.5139
 Red. Mass:       1.5123                 5.7283                 3.9656
 IR Intens:        8.773                  1.718                  5.288
 Frequency:       811.76                 866.54                 917.38
 Force Cnst:      1.6404                 1.1387                 0.7840
 Red. Mass:       4.2251                 2.5739                 1.5811
 IR Intens:        3.365                 23.965                  2.873
 Frequency:       926.58                 952.64                 991.73
 Force Cnst:      0.7775                 0.8041                 1.0026
 Red. Mass:       1.5371                 1.5038                 1.7302
 IR Intens:       16.244                  3.970                  5.473
 Frequency:      1012.64                1038.05                1094.05
 Force Cnst:      1.2003                 1.0775                 1.2743
 Red. Mass:       1.9868                 1.6973                 1.8070
 IR Intens:        1.981                  4.795                  1.186
 Frequency:      1099.30                1131.02                1223.88
 Force Cnst:      1.2008                 1.0306                 1.3739
 Red. Mass:       1.6865                 1.3674                 1.5568
 IR Intens:       16.151                  6.446                 10.971
 Frequency:      1272.93                1308.13                1335.87
 Force Cnst:      1.7029                 1.5353                 2.1012
 Red. Mass:       1.7837                 1.5228                 1.9985
 IR Intens:       13.509                 10.660                  6.940
 Frequency:      1355.98                1390.66                1623.25
 Force Cnst:      1.6423                 2.6977                10.0687
 Red. Mass:       1.5160                 2.3676                 6.4856
 IR Intens:       11.449                  5.198                 30.112
 Frequency:      2961.35                2993.17                3110.96
 Force Cnst:      5.6347                 5.7495                 6.2362
 Red. Mass:       1.0905                 1.0892                 1.0937
 IR Intens:       28.472                 15.462                 23.598
 Frequency:      3156.60                3256.41                3279.27
 Force Cnst:      6.4087                 6.8098                 6.9432
 Red. Mass:       1.0916                 1.0899                 1.0959
 IR Intens:       11.276                 19.845                  2.371

 STANDARD THERMODYNAMIC QUANTITIES AT   298.15 K  AND     1.00 ATM

   This Molecule has  2 Imaginary Frequencies
   Zero point vibrational energy:       62.123 kcal/mol

   Atom    1 Element C  Has Mass   12.00000
   Atom    2 Element C  Has Mass   12.00000
   Atom    3 Element C  Has Mass   12.00000
   Atom    4 Element C  Has Mass   12.00000
   Atom    5 Element C  Has Mass   12.00000
   Atom    6 Element N  Has Mass   14.00307
   Atom    7 Element H  Has Mass    1.00783
   Atom    8 Element H  Has Mass    1.00783
   Atom    9 Element H  Has Mass    1.00783
   Atom   10 Element H  Has Mass    1.00783
   Atom   11 Element H  Has Mass    1.00783
   Atom   12 Element C  Has Mass   12.00000
   Atom   13 Element H  Has Mass    1.00783
   Molecular Mass:    92.050050 amu
   Principal axes and moments of inertia in amu*Bohr^2:
                             1           2           3
    Eigenvalues --      369.54530   483.32078   589.71676
          X               0.07985     0.97694    -0.19803
          Y               0.99680    -0.07757     0.01928
          Z              -0.00347     0.19894     0.98001
   Rotational Symmetry Number is   1
   The Molecule is an Asymmetric Top
   Translational Enthalpy:        0.889 kcal/mol
   Rotational Enthalpy:           0.889 kcal/mol
   Vibrational Enthalpy:         63.172 kcal/mol
   gas constant (RT):             0.592 kcal/mol
   Translational Entropy:        39.471  cal/mol.K
   Rotational Entropy:           26.157  cal/mol.K
   Vibrational Entropy:           4.656  cal/mol.K

   Total Enthalpy:               65.542 kcal/mol
   Total Entropy:                70.284  cal/mol.K

 Total job time:  260.02s(wall), 256.18s(cpu)
        *  Thank you very much for using Q-Chem.  Have a nice day.  *
