 Q-Chem 5.0, Q-Chem, Inc., Pleasanton, CA (2017)
 Q-Chem 5.0.2 for Intel X86 EM64T Linux

User input:
--------------------------------------------------------------
$molecule
0 2
C        1.1765739846    0.2841915378    0.3673198532
C        0.7645724161   -0.9992421186   -0.3524262301
C       -0.5556124114   -0.9322060329   -0.8198171957
C       -1.0775357045    0.1591578107    0.1126633696
C       -0.4838009420    1.4614867737   -0.4308332550
N        0.7935170019    1.5227590369   -0.3250521132
H        2.1730477493    0.2851892528    0.8020325173
H        1.4794242213   -1.8037937785   -0.5077299310
H       -1.0651906309   -1.5244964285   -1.5678084166
H       -2.1351799942    0.1486692953    0.3774027606
H       -1.0525514937    2.2177302121   -0.9695750721
C        0.0071944864   -0.1893181727    1.1559297967
H       -0.0678313775   -0.6583816552    2.1268499531
$end

$rem
method                b3lyp
basis                 6-31+g(d,p)
unrestricted          true
symmetry              off
sym_ignore            true
incdft                false
incfock               0
scf_convergence       6
thresh                14
jobtype               sp
scf_guess             read
scf_algorithm         diis
max_scf_cycles        100
stability_analysis    true
max_cis_cycles        100
cis_n_roots           4
$end

--------------------------------------------------------------

             Standard Nuclear Orientation (Angstroms)
    I     Atom           X                Y                Z
 ----------------------------------------------------------------
    1      C       1.1765739846     0.2841915378     0.3673198532
    2      C       0.7645724161    -0.9992421186    -0.3524262301
    3      C      -0.5556124114    -0.9322060329    -0.8198171957
    4      C      -1.0775357045     0.1591578107     0.1126633696
    5      C      -0.4838009420     1.4614867737    -0.4308332550
    6      N       0.7935170019     1.5227590369    -0.3250521132
    7      H       2.1730477493     0.2851892528     0.8020325173
    8      H       1.4794242213    -1.8037937785    -0.5077299310
    9      H      -1.0651906309    -1.5244964285    -1.5678084166
   10      H      -2.1351799942     0.1486692953     0.3774027606
   11      H      -1.0525514937     2.2177302121    -0.9695750721
   12      C       0.0071944864    -0.1893181727     1.1559297967
   13      H      -0.0678313775    -0.6583816552     2.1268499531
 ----------------------------------------------------------------

    2    -286.8475023277      2.80E-09 Convergence criterion met
 Total energy in the final basis set = -286.84750233

         TDDFT/TDA Excitation Energies
 ---------------------------------------------------

 Excited state   1: excitation energy (eV) =    2.5756
 Total energy for state  1:                  -286.75285223 au
    <S**2>     :  0.7764
    Trans. Mom.: -0.0845 X   0.0906 Y  -0.4419 Z
    Strength   :     0.0132894479
    S(  1) --> V(  1) amplitude =  0.8835 alpha
    S(  1) --> V(  2) amplitude = -0.3689 alpha
    D( 24) --> S(  1) amplitude =  0.1846 beta

 Excited state   2: excitation energy (eV) =    2.8648
 Total energy for state  2:                  -286.74222267 au
    <S**2>     :  0.8001
    Trans. Mom.:  0.0031 X   0.5293 Y   0.0291 Z
    Strength   :     0.0197203955
    S(  1) --> V(  1) amplitude =  0.4135 alpha
    S(  1) --> V(  2) amplitude =  0.8730 alpha
    D( 24) --> S(  1) amplitude = -0.1589 beta

 Excited state   3: excitation energy (eV) =    3.4084
 Total energy for state  3:                  -286.72224511 au
    <S**2>     :  0.7862
    Trans. Mom.: -0.0680 X   0.0752 Y   0.2638 Z
    Strength   :     0.0066687916
    S(  1) --> V(  3) amplitude =  0.9856 alpha

 Excited state   4: excitation energy (eV) =    3.9469
 Total energy for state  4:                  -286.70245734 au
    <S**2>     :  0.7901
    Trans. Mom.: -0.2019 X   0.0514 Y  -0.1653 Z
    Strength   :     0.0068410738
    S(  1) --> V(  4) amplitude =  0.9815 alpha

 ---------------------------------------------------

                    Orbital Energies (a.u.)
 --------------------------------------------------------------

 Alpha MOs
 -- Occupied --
-14.330 -10.235 -10.230 -10.228 -10.225 -10.221 -10.207  -0.973
 -0.850  -0.750  -0.696  -0.601  -0.585  -0.547  -0.522  -0.473
 -0.444  -0.425  -0.408  -0.378  -0.356  -0.296  -0.284  -0.278
 -0.158

 Beta MOs
 -- Occupied --
-14.329 -10.235 -10.231 -10.230 -10.222 -10.217 -10.197  -0.969
 -0.842  -0.747  -0.684  -0.597  -0.577  -0.541  -0.519  -0.464
 -0.441  -0.419  -0.406  -0.373  -0.351  -0.287  -0.275  -0.265

          Ground-State Mulliken Net Atomic Charges

     Atom                 Charge (a.u.)    Spin (a.u.)
  --------------------------------------------------------
      1 C                    -0.134962      -0.019400
      2 C                    -0.100666      -0.236942
      3 C                    -0.145413       0.721022
      4 C                     0.007898      -0.101898
      5 C                    -0.071584      -0.001892
      6 N                    -0.178999       0.062516
      7 H                     0.138685       0.004555
      8 H                     0.138984       0.010779
      9 H                     0.138625      -0.026685
     10 H                     0.129377       0.011031
     11 H                     0.132185       0.001599
     12 C                    -0.200985       0.600915
     13 H                     0.146855      -0.025599
  --------------------------------------------------------
  Sum of atomic charges =    -0.000000

                    Cartesian Multipole Moments
 -----------------------------------------------------------------
    Charge (ESU x 10^10)
                -0.0000
    Dipole Moment (Debye)
         X      -1.2819      Y      -2.0710      Z       0.8464
       Tot       2.5785
    Quadrupole Moments (Debye-Ang)
        XX     -38.9296     XY      -5.0436     YY     -44.9881
        XZ       2.2691     YZ       0.5908     ZZ     -41.4689

 Total job time:  189.35s(wall), 187.98s(cpu)
        *  Thank you very much for using Q-Chem.  Have a nice day.  *
