 Q-Chem 5.0, Q-Chem, Inc., Pleasanton, CA (2017)
 Q-Chem 5.0.2 for Intel X86 EM64T Linux

User input:
--------------------------------------------------------------
$molecule
0 2
C        1.1765739846    0.2841915378    0.3673198532
C        0.7645724161   -0.9992421186   -0.3524262301
C       -0.5556124114   -0.9322060329   -0.8198171957
C       -1.0775357045    0.1591578107    0.1126633696
C       -0.4838009420    1.4614867737   -0.4308332550
N        0.7935170019    1.5227590369   -0.3250521132
H        2.1730477493    0.2851892528    0.8020325173
H        1.4794242213   -1.8037937785   -0.5077299310
H       -1.0651906309   -1.5244964285   -1.5678084166
H       -2.1351799942    0.1486692953    0.3774027606
H       -1.0525514937    2.2177302121   -0.9695750721
C        0.0071944864   -0.1893181727    1.1559297967
H       -0.0678313775   -0.6583816552    2.1268499531
$end

$rem
method                b3lyp
basis                 6-31+g(d,p)
unrestricted          true
symmetry              off
sym_ignore            true
incdft                false
incfock               0
scf_convergence       8
thresh                14
jobtype               freq
scf_guess             read
scf_algorithm         diis
max_scf_cycles        100
$end

--------------------------------------------------------------

             Standard Nuclear Orientation (Angstroms)
    I     Atom           X                Y                Z
 ----------------------------------------------------------------
    1      C       1.1765739846     0.2841915378     0.3673198532
    2      C       0.7645724161    -0.9992421186    -0.3524262301
    3      C      -0.5556124114    -0.9322060329    -0.8198171957
    4      C      -1.0775357045     0.1591578107     0.1126633696
    5      C      -0.4838009420     1.4614867737    -0.4308332550
    6      N       0.7935170019     1.5227590369    -0.3250521132
    7      H       2.1730477493     0.2851892528     0.8020325173
    8      H       1.4794242213    -1.8037937785    -0.5077299310
    9      H      -1.0651906309    -1.5244964285    -1.5678084166
   10      H      -2.1351799942     0.1486692953     0.3774027606
   11      H      -1.0525514937     2.2177302121    -0.9695750721
   12      C       0.0071944864    -0.1893181727     1.1559297967
   13      H      -0.0678313775    -0.6583816552     2.1268499531
 ----------------------------------------------------------------

    2    -286.8475023276      1.99E-09 Convergence criterion met
 Total energy in the final basis set = -286.84750233

                    Orbital Energies (a.u.)
 --------------------------------------------------------------

 Alpha MOs
 -- Occupied --
-14.330 -10.235 -10.230 -10.228 -10.225 -10.221 -10.207  -0.973
 -0.850  -0.750  -0.696  -0.601  -0.585  -0.547  -0.522  -0.473
 -0.444  -0.425  -0.408  -0.378  -0.356  -0.296  -0.284  -0.278
 -0.158

 Beta MOs
 -- Occupied --
-14.329 -10.235 -10.231 -10.230 -10.222 -10.217 -10.197  -0.969
 -0.842  -0.747  -0.684  -0.597  -0.577  -0.541  -0.519  -0.464
 -0.441  -0.419  -0.406  -0.373  -0.351  -0.287  -0.275  -0.265

          Ground-State Mulliken Net Atomic Charges

     Atom                 Charge (a.u.)    Spin (a.u.)
  --------------------------------------------------------
      1 C                    -0.134962      -0.019400
      2 C                    -0.100666      -0.236943
      3 C                    -0.145413       0.721023
      4 C                     0.007898      -0.101899
      5 C                    -0.071584      -0.001889
      6 N                    -0.178999       0.062514
      7 H                     0.138685       0.004555
      8 H                     0.138984       0.010779
      9 H                     0.138625      -0.026685
     10 H                     0.129377       0.011032
     11 H                     0.132185       0.001599
     12 C                    -0.200985       0.600915
     13 H                     0.146855      -0.025599
  --------------------------------------------------------
  Sum of atomic charges =    -0.000000

                    Cartesian Multipole Moments
 -----------------------------------------------------------------
    Charge (ESU x 10^10)
                -0.0000
    Dipole Moment (Debye)
         X      -1.2819      Y      -2.0710      Z       0.8464
       Tot       2.5785
    Quadrupole Moments (Debye-Ang)
        XX     -38.9296     XY      -5.0436     YY     -44.9881
        XZ       2.2691     YZ       0.5908     ZZ     -41.4689

 Frequency:      -664.27                 361.11                 396.29
 Force Cnst:      1.3469                 0.0928                 0.1079
 Red. Mass:       5.1807                 1.2081                 1.1664
 IR Intens:       37.259                 14.836                 30.614
 Frequency:       444.53                 481.27                 604.41
 Force Cnst:      0.3536                 0.5486                 0.9975
 Red. Mass:       3.0373                 4.0198                 4.6344
 IR Intens:       13.441                  7.990                 15.790
 Frequency:       740.74                 784.47                 830.55
 Force Cnst:      1.9511                 2.6108                 0.8825
 Red. Mass:       6.0352                 7.2006                 2.1713
 IR Intens:        3.225                  5.217                 18.275
 Frequency:       852.75                 883.66                 895.84
 Force Cnst:      1.7641                 1.0426                 0.7010
 Red. Mass:       4.1175                 2.2661                 1.4825
 IR Intens:        9.231                  7.395                  2.350
 Frequency:       914.37                 927.98                 958.54
 Force Cnst:      1.0083                 0.8049                 1.0790
 Red. Mass:       2.0469                 1.5863                 1.9932
 IR Intens:        0.511                 21.629                  2.592
 Frequency:       973.59                1027.14                1086.68
 Force Cnst:      1.1457                 1.2884                 1.2081
 Red. Mass:       2.0516                 2.0726                 1.7364
 IR Intens:        2.603                  3.563                  5.127
 Frequency:      1144.09                1178.74                1216.87
 Force Cnst:      1.2935                 1.4627                 1.3508
 Red. Mass:       1.6772                 1.7867                 1.5483
 IR Intens:       15.292                  1.770                  6.167
 Frequency:      1244.33                1275.70                1321.10
 Force Cnst:      1.4493                 1.2099                 1.5375
 Red. Mass:       1.5887                 1.2618                 1.4952
 IR Intens:        6.421                  1.168                  6.399
 Frequency:      1323.46                1410.95                1634.40
 Force Cnst:      1.7986                 3.2403                11.8918
 Red. Mass:       1.7428                 2.7625                 7.5558
 IR Intens:       15.764                  1.726                 44.505
 Frequency:      3139.02                3174.52                3175.97
 Force Cnst:      6.3285                 6.4845                 6.4919
 Red. Mass:       1.0901                 1.0921                 1.0924
 IR Intens:       17.471                 23.066                  5.405
 Frequency:      3185.65                3250.24                3265.89
 Force Cnst:      6.5347                 6.8204                 6.8852
 Red. Mass:       1.0929                 1.0958                 1.0956
 IR Intens:       20.313                  1.877                  0.413

 STANDARD THERMODYNAMIC QUANTITIES AT   298.15 K  AND     1.00 ATM

   This Molecule has  1 Imaginary Frequencies
   Zero point vibrational energy:       63.051 kcal/mol

   Atom    1 Element C  Has Mass   12.00000
   Atom    2 Element C  Has Mass   12.00000
   Atom    3 Element C  Has Mass   12.00000
   Atom    4 Element C  Has Mass   12.00000
   Atom    5 Element C  Has Mass   12.00000
   Atom    6 Element N  Has Mass   14.00307
   Atom    7 Element H  Has Mass    1.00783
   Atom    8 Element H  Has Mass    1.00783
   Atom    9 Element H  Has Mass    1.00783
   Atom   10 Element H  Has Mass    1.00783
   Atom   11 Element H  Has Mass    1.00783
   Atom   12 Element C  Has Mass   12.00000
   Atom   13 Element H  Has Mass    1.00783
   Molecular Mass:    92.050050 amu
   Principal axes and moments of inertia in amu*Bohr^2:
                             1           2           3
    Eigenvalues --      376.97095   456.82662   565.59329
          X               0.10914     0.95476    -0.27662
          Y               0.99396    -0.10158     0.04155
          Z              -0.01157     0.27948     0.96008
   Rotational Symmetry Number is   1
   The Molecule is an Asymmetric Top
   Translational Enthalpy:        0.889 kcal/mol
   Rotational Enthalpy:           0.889 kcal/mol
   Vibrational Enthalpy:         64.374 kcal/mol
   gas constant (RT):             0.592 kcal/mol
   Translational Entropy:        39.471  cal/mol.K
   Rotational Entropy:           26.079  cal/mol.K
   Vibrational Entropy:           6.075  cal/mol.K

   Total Enthalpy:               66.744 kcal/mol
   Total Entropy:                71.625  cal/mol.K

 Total job time:  562.24s(wall), 560.59s(cpu)
        *  Thank you very much for using Q-Chem.  Have a nice day.  *
