 Q-Chem 5.0, Q-Chem, Inc., Pleasanton, CA (2017)
 Q-Chem 5.0.2 for Intel X86 EM64T Linux

User input:
--------------------------------------------------------------
$molecule
0 2
C        1.2126239819    0.0361848842    0.0372083026
C        0.6307112700   -1.0403686793    0.9196791699
C       -0.6974578799   -1.0713100486    0.7283916818
C       -1.0553629537   -0.1046590976   -0.3430008212
C       -0.3915535410    1.3476091104   -0.2059449721
N        0.7796220783    1.4033690950    0.5670903529
H        2.2831182215    0.0044716673   -0.1695556388
H        1.1910480792   -1.5545772926    1.6922047449
H       -1.4275877708   -1.6330782555    1.3010729747
H       -2.0251434222   -0.0928111491   -0.8308302739
H       -1.0008124281    2.2234186946   -0.4092886851
C        0.1727068698    0.2393605796   -1.1059357165
H        0.3280874955    0.2423904911   -2.1810911198
$end

$rem
method                b3lyp
basis                 6-31g(d)
unrestricted          true
symmetry              off
sym_ignore            true
incdft                false
incfock               0
scf_convergence       8
thresh                14
jobtype               opt
scf_guess             read
scf_algorithm         diis
max_scf_cycles        100
geom_opt_tol_gradient 600
geom_opt_tol_displacement 2400
geom_opt_tol_energy   200
geom_opt_max_cycles   100
$end

--------------------------------------------------------------

    2    -286.8377615165      1.20E-09 Convergence criterion met
 Total energy in the final basis set = -286.83776152

             Standard Nuclear Orientation (Angstroms)
    I     Atom           X                Y                Z
 ----------------------------------------------------------------
    1      C       1.2127215552     0.0365438255     0.0374242238
    2      C       0.6305912984    -1.0403126756     0.9196121526
    3      C      -0.6978052684    -1.0715213861     0.7284052935
    4      C      -1.0555053108    -0.1048501299    -0.3428173022
    5      C      -0.3915118028     1.3473345277    -0.2056541247
    6      N       0.7798864071     1.4026786085     0.5667937011
    7      H       2.2833072328     0.0049560256    -0.1692282917
    8      H       1.1913766083    -1.5538886699     1.6921888041
    9      H      -1.4279969594    -1.6334349216     1.3009375703
   10      H      -2.0250657717    -0.0930619275    -0.8311151862
   11      H      -0.9997883020     2.2236759750    -0.4094071449
   12      C       0.1724547076     0.2392878496    -1.1059717507
   13      H       0.3273356061     0.2425928982    -2.1811679458
 ----------------------------------------------------------------

   10    -286.8377633041      9.52E-09 Convergence criterion met
 Total energy in the final basis set = -286.83776330
 Final energy is   -286.837763304074
 **  OPTIMIZATION CONVERGED  **

                    Orbital Energies (a.u.)
 --------------------------------------------------------------

 Alpha MOs
 -- Occupied --
-14.336 -10.227 -10.223 -10.216 -10.213 -10.190 -10.184  -0.975
 -0.810  -0.764  -0.680  -0.594  -0.566  -0.539  -0.508  -0.478
 -0.419  -0.401  -0.387  -0.367  -0.356  -0.328  -0.262  -0.240
 -0.203

 Beta MOs
 -- Occupied --
-14.319 -10.228 -10.223 -10.213 -10.211 -10.190 -10.183  -0.960
 -0.794  -0.758  -0.673  -0.589  -0.562  -0.536  -0.501  -0.472
 -0.411  -0.390  -0.382  -0.362  -0.347  -0.312  -0.246  -0.235

          Ground-State Mulliken Net Atomic Charges

     Atom                 Charge (a.u.)    Spin (a.u.)
  --------------------------------------------------------
      1 C                    -0.096546      -0.045079
      2 C                    -0.092650       0.032885
      3 C                    -0.078843      -0.001458
      4 C                    -0.175018       0.086005
      5 C                     0.015330      -0.063950
      6 N                    -0.307498       0.830053
      7 H                     0.143105       0.011345
      8 H                     0.139112      -0.000287
      9 H                     0.137441       0.004527
     10 H                     0.148028       0.001311
     11 H                     0.151513       0.001034
     12 C                    -0.139422       0.135334
     13 H                     0.155447       0.008278
  --------------------------------------------------------
  Sum of atomic charges =     0.000000

                    Cartesian Multipole Moments
 -----------------------------------------------------------------
    Charge (ESU x 10^10)
                -0.0000
    Dipole Moment (Debye)
         X      -1.1117      Y      -1.2084      Z      -1.4486
       Tot       2.1896
    Quadrupole Moments (Debye-Ang)
        XX     -37.6829     XY      -2.9058     YY     -43.3701
        XZ      -0.4076     YZ      -3.8822     ZZ     -39.4841

 Total job time:  24.24s(wall), 49.89s(cpu)
        *  Thank you very much for using Q-Chem.  Have a nice day.  *
