 Q-Chem 5.0, Q-Chem, Inc., Pleasanton, CA (2017)
 Q-Chem 5.0.2 for Intel X86 EM64T Linux

User input:
--------------------------------------------------------------
$molecule
0 2
C        0.9062596326    0.1913601887    0.3259237159
C        1.1593186027   -1.1085564734   -0.4014148950
C        0.0492977700   -1.8209470162   -0.2958271960
C       -1.3325447101    0.8333021752    0.2707529228
C       -0.5018579553    1.6239138817   -0.6171019631
N        0.7605083045    1.3049146494   -0.6217533397
H        1.6561439773    0.4524552822    1.0853012915
H        2.0717133946   -1.3376973863   -0.9527791680
H       -0.3421959452   -2.7757924361   -0.6316153512
H       -2.4005184866    0.9496205783    0.4098558011
H       -0.8683906967    2.4280958766   -1.2524332873
C       -0.5012245677   -0.0965557934    0.8666805642
H       -0.7145027892   -0.6562453058    1.7694628471
$end

$rem
method                b3lyp
basis                 6-31+g(d,p)
unrestricted          true
symmetry              off
sym_ignore            true
incdft                false
incfock               0
scf_convergence       8
thresh                14
jobtype               sp
scf_guess             core
scf_guess_mix         5
scf_algorithm         diis
max_scf_cycles        100
$end

--------------------------------------------------------------

             Standard Nuclear Orientation (Angstroms)
    I     Atom           X                Y                Z
 ----------------------------------------------------------------
    1      C       0.9062596326     0.1913601887     0.3259237159
    2      C       1.1593186027    -1.1085564734    -0.4014148950
    3      C       0.0492977700    -1.8209470162    -0.2958271960
    4      C      -1.3325447101     0.8333021752     0.2707529228
    5      C      -0.5018579553     1.6239138817    -0.6171019631
    6      N       0.7605083045     1.3049146494    -0.6217533397
    7      H       1.6561439773     0.4524552822     1.0853012915
    8      H       2.0717133946    -1.3376973863    -0.9527791680
    9      H      -0.3421959452    -2.7757924361    -0.6316153512
   10      H      -2.4005184866     0.9496205783     0.4098558011
   11      H      -0.8683906967     2.4280958766    -1.2524332873
   12      C      -0.5012245677    -0.0965557934     0.8666805642
   13      H      -0.7145027892    -0.6562453058     1.7694628471
 ----------------------------------------------------------------

   22    -286.8564679450      5.08E-09 Convergence criterion met
 Total energy in the final basis set = -286.85646795

                    Orbital Energies (a.u.)
 --------------------------------------------------------------

 Alpha MOs
 -- Occupied --
-14.338 -10.233 -10.233 -10.223 -10.220 -10.210 -10.209  -0.956
 -0.817  -0.771  -0.697  -0.607  -0.566  -0.542  -0.523  -0.489
 -0.442  -0.417  -0.406  -0.368  -0.339  -0.302  -0.285  -0.273
 -0.204

 Beta MOs
 -- Occupied --
-14.333 -10.235 -10.232 -10.226 -10.210 -10.208 -10.205  -0.951
 -0.809  -0.763  -0.691  -0.599  -0.562  -0.534  -0.520  -0.482
 -0.435  -0.413  -0.403  -0.365  -0.327  -0.283  -0.271  -0.266

          Ground-State Mulliken Net Atomic Charges

     Atom                 Charge (a.u.)    Spin (a.u.)
  --------------------------------------------------------
      1 C                     0.060467      -0.010729
      2 C                    -0.117540      -0.121538
      3 C                    -0.225847       0.743999
      4 C                     0.027861       0.392496
      5 C                    -0.142899      -0.129272
      6 N                    -0.220816       0.235726
      7 H                     0.155495       0.013452
      8 H                     0.142806       0.038674
      9 H                     0.141026       0.018336
     10 H                     0.134579      -0.018213
     11 H                     0.131482       0.004573
     12 C                    -0.242828      -0.187954
     13 H                     0.156216       0.020449
  --------------------------------------------------------
  Sum of atomic charges =    -0.000000

                    Cartesian Multipole Moments
 -----------------------------------------------------------------
    Charge (ESU x 10^10)
                -0.0000
    Dipole Moment (Debye)
         X      -1.4042      Y      -1.0419      Z       1.1218
       Tot       2.0774
    Quadrupole Moments (Debye-Ang)
        XX     -39.8945     XY      -3.7243     YY     -41.3415
        XZ       1.5241     YZ       1.1167     ZZ     -42.0986

 Total job time:  33.62s(wall), 111.16s(cpu)
        *  Thank you very much for using Q-Chem.  Have a nice day.  *
