 Q-Chem 5.0, Q-Chem, Inc., Pleasanton, CA (2017)
 Q-Chem 5.0.2 for Intel X86 EM64T Linux

User input:
--------------------------------------------------------------
$molecule
0 2
C        1.0042836072    0.2216049221    0.3323543011
C        1.1840799552   -1.0722923328   -0.4629398147
C       -0.0157230430   -1.5629760734   -0.1229705744
C       -1.3127637842    0.6651087789    0.1016386642
C       -0.5104712838    1.6121197592   -0.5576667805
N        0.8035442258    1.4226712253   -0.4715778154
H        1.7326939383    0.4028295862    1.1311373369
H        1.9962824410   -1.4190895109   -1.0936373288
H       -0.5522783367   -2.4767347369   -0.3612575711
H       -2.3971702726    0.6587032431    0.1180217809
H       -0.8933306861    2.4501726519   -1.1360278187
C       -0.4152361736   -0.3466265136    0.7332454093
H       -0.6239105870   -0.5554909989    1.7896802110
$end

$rem
method                b3lyp
basis                 6-31+g(d,p)
unrestricted          true
symmetry              off
sym_ignore            true
incdft                false
incfock               0
scf_convergence       8
thresh                14
jobtype               sp
scf_guess             core
scf_guess_mix         5
scf_algorithm         diis
max_scf_cycles        100
$end

--------------------------------------------------------------

             Standard Nuclear Orientation (Angstroms)
    I     Atom           X                Y                Z
 ----------------------------------------------------------------
    1      C       1.0042836072     0.2216049221     0.3323543011
    2      C       1.1840799552    -1.0722923328    -0.4629398147
    3      C      -0.0157230430    -1.5629760734    -0.1229705744
    4      C      -1.3127637842     0.6651087789     0.1016386642
    5      C      -0.5104712838     1.6121197592    -0.5576667805
    6      N       0.8035442258     1.4226712253    -0.4715778154
    7      H       1.7326939383     0.4028295862     1.1311373369
    8      H       1.9962824410    -1.4190895109    -1.0936373288
    9      H      -0.5522783367    -2.4767347369    -0.3612575711
   10      H      -2.3971702726     0.6587032431     0.1180217809
   11      H      -0.8933306861     2.4501726519    -1.1360278187
   12      C      -0.4152361736    -0.3466265136     0.7332454093
   13      H      -0.6239105870    -0.5554909989     1.7896802110
 ----------------------------------------------------------------

   22    -286.8969881568      8.79E-09 Convergence criterion met
 Total energy in the final basis set = -286.89698816

                    Orbital Energies (a.u.)
 --------------------------------------------------------------

 Alpha MOs
 -- Occupied --
-14.343 -10.228 -10.228 -10.219 -10.213 -10.211 -10.206  -0.956
 -0.848  -0.762  -0.675  -0.627  -0.563  -0.531  -0.524  -0.490
 -0.438  -0.413  -0.396  -0.364  -0.351  -0.332  -0.281  -0.264
 -0.214

 Beta MOs
 -- Occupied --
-14.333 -10.230 -10.228 -10.213 -10.210 -10.210 -10.205  -0.944
 -0.842  -0.745  -0.675  -0.619  -0.558  -0.528  -0.520  -0.483
 -0.430  -0.406  -0.391  -0.353  -0.344  -0.311  -0.275  -0.258

          Ground-State Mulliken Net Atomic Charges

     Atom                 Charge (a.u.)    Spin (a.u.)
  --------------------------------------------------------
      1 C                    -0.214907      -0.061149
      2 C                    -0.075417       0.049324
      3 C                    -0.157671       0.025310
      4 C                    -0.070092       0.756585
      5 C                    -0.110324      -0.255471
      6 N                    -0.175933       0.518718
      7 H                     0.148297       0.028536
      8 H                     0.130999       0.003249
      9 H                     0.127735       0.006597
     10 H                     0.136063      -0.032466
     11 H                     0.130693       0.007377
     12 C                    -0.016019      -0.074207
     13 H                     0.146576       0.027597
  --------------------------------------------------------
  Sum of atomic charges =    -0.000000

                    Cartesian Multipole Moments
 -----------------------------------------------------------------
    Charge (ESU x 10^10)
                -0.0000
    Dipole Moment (Debye)
         X      -1.6497      Y      -1.4299      Z       0.8633
       Tot       2.3476
    Quadrupole Moments (Debye-Ang)
        XX     -39.8237     XY      -3.5185     YY     -42.7310
        XZ       1.1480     YZ       1.0008     ZZ     -41.8126

 Total job time:  31.78s(wall), 112.06s(cpu)
        *  Thank you very much for using Q-Chem.  Have a nice day.  *
