 Q-Chem 5.0, Q-Chem, Inc., Pleasanton, CA (2017)
 Q-Chem 5.0.2 for Intel X86 EM64T Linux

User input:
--------------------------------------------------------------
$molecule
0 2
C        0.6584220780    0.0777698540    0.2511410181
C        1.0460861996   -1.2369535382   -0.3988312637
C        0.3970550009   -2.3731616926   -0.2826461068
C       -1.3661811095    1.1610038917    0.4016955702
C       -0.4896729477    1.7544615871   -0.6190688323
N        0.6539600123    1.1670801461   -0.7426094754
H        1.4465895568    0.3354815449    0.9805137156
H        1.9552232016   -1.1818073304   -1.0087060604
H        0.4980078700   -3.3894257558   -0.6396122695
H       -2.3630778551    1.5019224495    0.6553723658
H       -0.7460058983    2.6137571234   -1.2358842761
C       -0.6843668732    0.1263520946    0.9310647733
H       -1.0060392354   -0.5564803743    1.7075708411
$end

$rem
method                b3lyp
basis                 6-31+g(d,p)
unrestricted          true
symmetry              off
sym_ignore            true
incdft                false
incfock               0
scf_convergence       8
thresh                14
jobtype               sp
scf_guess             read
scf_algorithm         diis
max_scf_cycles        100
scf_final_print       1
$end

--------------------------------------------------------------

             Standard Nuclear Orientation (Angstroms)
    I     Atom           X                Y                Z
 ----------------------------------------------------------------
    1      C       0.6584220780     0.0777698540     0.2511410181
    2      C       1.0460861996    -1.2369535382    -0.3988312637
    3      C       0.3970550009    -2.3731616926    -0.2826461068
    4      C      -1.3661811095     1.1610038917     0.4016955702
    5      C      -0.4896729477     1.7544615871    -0.6190688323
    6      N       0.6539600123     1.1670801461    -0.7426094754
    7      H       1.4465895568     0.3354815449     0.9805137156
    8      H       1.9552232016    -1.1818073304    -1.0087060604
    9      H       0.4980078700    -3.3894257558    -0.6396122695
   10      H      -2.3630778551     1.5019224495     0.6553723658
   11      H      -0.7460058983     2.6137571234    -1.2358842761
   12      C      -0.6843668732     0.1263520946     0.9310647733
   13      H      -1.0060392354    -0.5564803743     1.7075708411
 ----------------------------------------------------------------

    2    -286.8749094371      2.63E-09 Convergence criterion met
 Total energy in the final basis set = -286.87490944

                    Orbital Energies (a.u.)
 --------------------------------------------------------------

 Alpha MOs
 -- Occupied --
-14.336 -10.239 -10.235 -10.222 -10.215 -10.213 -10.208  -0.955
 -0.803  -0.776  -0.715  -0.606  -0.566  -0.547  -0.517  -0.478
 -0.458  -0.417  -0.408  -0.381  -0.337  -0.286  -0.278  -0.266
 -0.245

 Beta MOs
 -- Occupied --
-14.336 -10.238 -10.235 -10.217 -10.213 -10.208 -10.207  -0.955
 -0.794  -0.775  -0.704  -0.597  -0.565  -0.539  -0.514  -0.467
 -0.453  -0.415  -0.407  -0.376  -0.335  -0.281  -0.274  -0.264

          Ground-State Mulliken Net Atomic Charges

     Atom                 Charge (a.u.)    Spin (a.u.)
  --------------------------------------------------------
      1 C                    -0.041647       0.081764
      2 C                    -0.108178      -0.310094
      3 C                    -0.225164       1.161972
      4 C                     0.030726      -0.030306
      5 C                    -0.147779       0.014341
      6 N                    -0.207537      -0.003928
      7 H                     0.178073      -0.004866
      8 H                     0.158792       0.078688
      9 H                     0.154737       0.008795
     10 H                     0.134629       0.000243
     11 H                     0.131601      -0.000088
     12 C                    -0.203919       0.003480
     13 H                     0.145666      -0.000001
  --------------------------------------------------------
  Sum of atomic charges =     0.000000

                    Cartesian Multipole Moments
 -----------------------------------------------------------------
    Charge (ESU x 10^10)
                 0.0000
    Dipole Moment (Debye)
         X      -0.9819      Y      -0.4840      Z       1.1431
       Tot       1.5827
    Quadrupole Moments (Debye-Ang)
        XX     -40.3630     XY      -4.9218     YY     -38.6713
        XZ       0.5669     YZ       1.3544     ZZ     -42.9426

 Total job time:  5.77s(wall), 11.61s(cpu)
        *  Thank you very much for using Q-Chem.  Have a nice day.  *
