 Q-Chem 5.0, Q-Chem, Inc., Pleasanton, CA (2017)
 Q-Chem 5.0.2 for Intel X86 EM64T Linux

User input:
--------------------------------------------------------------
$molecule
0 2
C        1.5716783180    0.3989309435   -0.4775925785
C        1.2450735921   -0.9105411304   -0.1791091331
C       -0.0290881275   -1.4371880166    0.2393437652
C       -1.3727347365    0.6809606595    0.2509144424
C       -0.4441272494    1.6245769181   -0.1461701627
N        0.8658173121    1.5538657580   -0.4802257371
H        2.6109892053    0.5554258812   -0.7749337823
H        2.0544341133   -1.6304843322   -0.2739414599
H       -0.0620061770   -2.5095789697    0.4210025955
H       -2.3717034157    1.0600360688    0.4526484073
H       -0.8270440457    2.6455119117   -0.2102187527
C       -1.1823404522   -0.7359821613    0.4290109163
H       -2.0589483362   -1.2955335303    0.7492714800
****
C        0.6494309750    0.0839862179    0.2983322321
C        1.0799737859   -1.2140661537   -0.3597843021
C        0.4228154477   -2.3485818540   -0.3095041724
C       -1.3982601824    1.1290312803    0.3414389654
C       -0.4704153827    1.7516647742   -0.6140221359
N        0.6894297683    1.1906028703   -0.6756406850
H        1.3932951277    0.3330076758    1.0755996055
H        2.0230753135   -1.1395481907   -0.9138067931
H        0.5523013233   -3.3546941907   -0.6880575142
H       -2.4150483560    1.4503882387    0.5372059113
H       -0.7061292583    2.6171070148   -1.2324926230
C       -0.7327005204    0.1007431991    0.8971880473
H       -1.0877680418   -0.5996408818    1.6435434643
$end

$rem
method                b3lyp
basis                 6-31g(d)
unrestricted          true
symmetry              off
sym_ignore            true
incdft                false
incfock               0
scf_convergence       8
thresh                14
jobtype               fsm
scf_guess             core
scf_guess_mix         5
scf_algorithm         diis
max_scf_cycles        100
fsm_nnode             21
fsm_ngrad             6
fsm_mode              2
fsm_opt_mode          2
$end

--------------------------------------------------------------

   23    -286.9243472835      2.93E-09 Convergence criterion met
 Total energy in the final basis set = -286.92434728
   22    -286.8505526394      8.68E-09 Convergence criterion met
 Total energy in the final basis set = -286.85055264
   24    -286.9180498742      3.83E-09 Convergence criterion met
 Total energy in the final basis set = -286.91804987
   23    -286.9216675696      8.10E-09 Convergence criterion met
 Total energy in the final basis set = -286.92166757
   22    -286.8465089643      5.14E-09 Convergence criterion met
 Total energy in the final basis set = -286.84650896
   22    -286.8481090170      7.84E-09 Convergence criterion met
 Total energy in the final basis set = -286.84810902
   25    -286.9126149244      3.34E-09 Convergence criterion met
 Total energy in the final basis set = -286.91261492
   23    -286.9169326399      9.80E-09 Convergence criterion met
 Total energy in the final basis set = -286.76013427
   23    -286.7594606960      6.68E-09 Convergence criterion met
 Total energy in the final basis set = -286.75946070
   23    -286.7601074113      5.37E-09 Convergence criterion met
 Total energy in the final basis set = -286.76010741
   23    -286.7594894127      6.82E-09 Convergence criterion met
 Total energy in the final basis set = -286.75948941
   23    -286.7600803433      5.12E-09 Convergence criterion met
 Total energy in the final basis set = -286.76008034
   23    -286.7595188502      6.93E-09 Convergence criterion met
 Total energy in the final basis set = -286.75951885
   23    -286.7600426024      5.12E-09 Convergence criterion met
 Total energy in the final basis set = -286.76004260
   23    -286.7595587335      6.94E-09 Convergence criterion met
 Total energy in the final basis set = -286.75955873

                    Orbital Energies (a.u.)
 --------------------------------------------------------------

 Alpha MOs
 -- Occupied --
-14.333 -10.250 -10.228 -10.214 -10.210 -10.198 -10.190  -0.940
 -0.801  -0.767  -0.681  -0.614  -0.547  -0.524  -0.513  -0.473
 -0.422  -0.422  -0.393  -0.348  -0.310  -0.290  -0.280  -0.247
 -0.193

 Beta MOs
 -- Occupied --
-14.329 -10.248 -10.229 -10.217 -10.199 -10.198 -10.186  -0.934
 -0.792  -0.761  -0.675  -0.606  -0.539  -0.516  -0.509  -0.467
 -0.418  -0.413  -0.389  -0.341  -0.304  -0.283  -0.254  -0.242

          Ground-State Mulliken Net Atomic Charges

     Atom                 Charge (a.u.)    Spin (a.u.)
  --------------------------------------------------------
      1 C                    -0.042042       0.110299
      2 C                    -0.083431      -0.118617
      3 C                    -0.167929       0.742886
      4 C                    -0.130715       0.302654
      5 C                     0.072191      -0.093875
      6 N                    -0.361596       0.195156
      7 H                     0.161843       0.014675
      8 H                     0.143583       0.029227
      9 H                     0.154272       0.021591
     10 H                     0.141486      -0.015727
     11 H                     0.143730       0.005920
     12 C                    -0.199238      -0.223309
     13 H                     0.167846       0.029119
  --------------------------------------------------------
  Sum of atomic charges =     0.000000

                    Cartesian Multipole Moments
 -----------------------------------------------------------------
    Charge (ESU x 10^10)
                -0.0000
    Dipole Moment (Debye)
         X      -0.8924      Y      -1.1234      Z       0.8751
       Tot       1.6805
    Quadrupole Moments (Debye-Ang)
        XX     -37.0045     XY      -3.4012     YY     -37.5100
        XZ       0.3538     YZ       0.2927     ZZ     -44.0274

             Standard Nuclear Orientation (Angstroms)
    I     Atom           X                Y                Z
 ----------------------------------------------------------------
    1      C       0.9824701920     0.2224775865     0.1292569563
    2      C       1.2078741355    -1.1612426746    -0.4232083438
    3      C       0.1511540003    -1.9315356372    -0.2599592418
    4      C      -1.3607733874     0.9174102665     0.3196551170
    5      C      -0.5281539919     1.7561601155    -0.5116603855
    6      N       0.6878249502     1.3676044774    -0.6964053495
    7      H       1.9194644110     0.5472551141     0.6443876805
    8      H       2.1861105165    -1.5252823242    -0.7254564371
    9      H      -0.0503610344    -2.9996625779    -0.2968206815
   10      H      -2.4168004990     1.1062465600     0.4926005376
   11      H      -0.8907322895     2.6897412534    -0.9491016691
   12      C      -0.6733536936    -0.1312265108     0.8387767989
   13      H      -1.2727167788    -0.8700774277     1.3929869601
 ----------------------------------------------------------------

 Total job time:  1859.70s(wall), 5057.60s(cpu)
        *  Thank you very much for using Q-Chem.  Have a nice day.  *
