 Q-Chem 5.0, Q-Chem, Inc., Pleasanton, CA (2017)
 Q-Chem 5.0.2 for Intel X86 EM64T Linux

User input:
--------------------------------------------------------------
$molecule
0 2
C        0.9062596326    0.1913601887    0.3259237159
C        1.1593186027   -1.1085564734   -0.4014148950
C        0.0492977700   -1.8209470162   -0.2958271960
C       -1.3325447101    0.8333021752    0.2707529228
C       -0.5018579553    1.6239138817   -0.6171019631
N        0.7605083045    1.3049146494   -0.6217533397
H        1.6561439773    0.4524552822    1.0853012915
H        2.0717133946   -1.3376973863   -0.9527791680
H       -0.3421959452   -2.7757924361   -0.6316153512
H       -2.4005184866    0.9496205783    0.4098558011
H       -0.8683906967    2.4280958766   -1.2524332873
C       -0.5012245677   -0.0965557934    0.8666805642
H       -0.7145027892   -0.6562453058    1.7694628471
$end

$rem
method                b3lyp
basis                 6-31+g(d,p)
unrestricted          true
symmetry              off
sym_ignore            true
incdft                false
incfock               0
scf_convergence       8
thresh                14
jobtype               rpath
scf_guess             core
scf_guess_mix         5
scf_algorithm         diis
max_scf_cycles        100
rpath_direction       1
rpath_tol_displacement 1000
rpath_max_cycles      50
geom_opt_max_cycles   300
geom_opt_hessian      read
$end

--------------------------------------------------------------

   22    -286.8564679450      5.08E-09 Convergence criterion met
 Total energy in the final basis set = -286.85646795
   23    -286.8574850519      7.62E-09 Convergence criterion met
 Total energy in the final basis set = -286.85748505
   23    -286.8569155045      6.74E-09 Convergence criterion met
 Total energy in the final basis set = -286.85691550
   23    -286.8574900376      7.69E-09 Convergence criterion met
 Total energy in the final basis set = -286.85749004
   23    -286.8594322646      8.60E-09 Convergence criterion met
 Total energy in the final basis set = -286.85943226
   23    -286.8577035991      5.41E-09 Convergence criterion met
 Total energy in the final basis set = -286.85770360
   23    -286.8594930165      8.17E-09 Convergence criterion met
 Total energy in the final basis set = -286.85949302
   23    -286.8597162658      5.36E-09 Convergence criterion met
 Total energy in the final basis set = -286.89687309
   22    -286.8969256661      8.46E-09 Convergence criterion met
 Total energy in the final basis set = -286.89692567
   22    -286.8945578243      7.75E-09 Convergence criterion met
 Total energy in the final basis set = -286.89455782
   22    -286.8969839573      8.51E-09 Convergence criterion met
 Total energy in the final basis set = -286.89698396
   22    -286.8829672960      9.32E-09 Convergence criterion met
 Total energy in the final basis set = -286.88296730
   22    -286.8969880464      8.80E-09 Convergence criterion met
 Total energy in the final basis set = -286.89698805
   22    -286.8969873439      8.74E-09 Convergence criterion met
 Total energy in the final basis set = -286.89698734
   22    -286.8969881568      8.79E-09 Convergence criterion met
 Total energy in the final basis set = -286.89698816

                    Orbital Energies (a.u.)
 --------------------------------------------------------------

 Alpha MOs
 -- Occupied --
-14.343 -10.228 -10.228 -10.219 -10.213 -10.211 -10.206  -0.956
 -0.848  -0.762  -0.675  -0.627  -0.563  -0.531  -0.524  -0.490
 -0.438  -0.413  -0.396  -0.364  -0.351  -0.332  -0.281  -0.264
 -0.214

 Beta MOs
 -- Occupied --
-14.333 -10.230 -10.228 -10.213 -10.210 -10.210 -10.205  -0.944
 -0.842  -0.745  -0.675  -0.619  -0.558  -0.528  -0.520  -0.483
 -0.430  -0.406  -0.391  -0.353  -0.344  -0.311  -0.275  -0.258

          Ground-State Mulliken Net Atomic Charges

     Atom                 Charge (a.u.)    Spin (a.u.)
  --------------------------------------------------------
      1 C                    -0.214907      -0.061149
      2 C                    -0.075417       0.049324
      3 C                    -0.157671       0.025310
      4 C                    -0.070092       0.756585
      5 C                    -0.110324      -0.255471
      6 N                    -0.175933       0.518718
      7 H                     0.148297       0.028536
      8 H                     0.130999       0.003249
      9 H                     0.127735       0.006597
     10 H                     0.136063      -0.032466
     11 H                     0.130693       0.007377
     12 C                    -0.016019      -0.074207
     13 H                     0.146576       0.027597
  --------------------------------------------------------
  Sum of atomic charges =     0.000000

                    Cartesian Multipole Moments
 -----------------------------------------------------------------
    Charge (ESU x 10^10)
                 0.0000
    Dipole Moment (Debye)
         X      -1.6497      Y      -1.4299      Z       0.8633
       Tot       2.3476
    Quadrupole Moments (Debye-Ang)
        XX     -39.8090     XY      -3.5106     YY     -42.7284
        XZ       1.1499     YZ       1.0049     ZZ     -41.8186

             Standard Nuclear Orientation (Angstroms)
    I     Atom           X                Y                Z
 ----------------------------------------------------------------
    1      C       0.9062596326     0.1913601887     0.3259237159
    2      C       1.1593186027    -1.1085564734    -0.4014148950
    3      C       0.0492977700    -1.8209470162    -0.2958271960
    4      C      -1.3325447101     0.8333021752     0.2707529228
    5      C      -0.5018579553     1.6239138817    -0.6171019631
    6      N       0.7605083045     1.3049146494    -0.6217533397
    7      H       1.6561439773     0.4524552822     1.0853012915
    8      H       2.0717133946    -1.3376973863    -0.9527791680
    9      H      -0.3421959452    -2.7757924361    -0.6316153512
   10      H      -2.4005184866     0.9496205783     0.4098558011
   11      H      -0.8683906967     2.4280958766    -1.2524332873
   12      C      -0.5012245677    -0.0965557934     0.8666805642
   13      H      -0.7145027892    -0.6562453058     1.7694628471
 ----------------------------------------------------------------

 Total job time:  12287.38s(wall), 40725.57s(cpu)
        *  Thank you very much for using Q-Chem.  Have a nice day.  *
