 Q-Chem 5.0, Q-Chem, Inc., Pleasanton, CA (2017)
 Q-Chem 5.0.2 for Intel X86 EM64T Linux

User input:
--------------------------------------------------------------
$molecule
0 2
C        0.7146456836    0.0983554972    0.2848850543
C        1.0454094738   -1.2213021095   -0.3915995562
C        0.2529172502   -2.2687254800   -0.4222659711
C       -1.3461670746    1.1140309297    0.4295829644
C       -0.5037378488    1.7065129119   -0.6206644145
N        0.6645924553    1.1675447603   -0.7316800961
H        1.5331712908    0.3519603757    0.9787041987
H        2.0081013623   -1.2372249716   -0.9148700990
H        0.2489975985   -3.2616640446   -0.8504663841
H       -2.3586363776    1.4132530285    0.6744772938
H       -0.8051611971    2.5254496004   -1.2707500461
C       -0.6142568033    0.1330928282    0.9922416696
H       -0.8978692787   -0.5334150984    1.7974573354
$end

$rem
method                b3lyp
basis                 6-31+g(d,p)
unrestricted          true
symmetry              off
sym_ignore            true
incdft                false
incfock               0
scf_convergence       8
thresh                14
jobtype               opt
scf_guess             read
scf_algorithm         diis
max_scf_cycles        100
geom_opt_max_cycles   300
$end

--------------------------------------------------------------

   20    -286.8743552081      6.05E-09 Convergence criterion met
 Total energy in the final basis set = -286.87435521
   14    -286.8747013550      2.39E-09 Convergence criterion met
 Total energy in the final basis set = -286.87470136
   13    -286.8748860455      8.96E-09 Convergence criterion met
 Total energy in the final basis set = -286.87488605
   12    -286.8749069868      7.46E-09 Convergence criterion met
 Total energy in the final basis set = -286.87490699
   12    -286.8749114428      2.70E-09 Convergence criterion met
 Total energy in the final basis set = -286.87491144
   11    -286.8749135540      4.42E-09 Convergence criterion met
 Total energy in the final basis set = -286.87491355

             Standard Nuclear Orientation (Angstroms)
    I     Atom           X                Y                Z
 ----------------------------------------------------------------
    1      C       0.6597476013     0.0653739921     0.2365717731
    2      C       1.0190004315    -1.2445138402    -0.4393895705
    3      C       0.3581460674    -2.3742552780    -0.3271799866
    4      C      -1.3483155277     1.1703448380     0.4407798774
    5      C      -0.4838904096     1.7680394050    -0.5878362999
    6      N       0.6498658330     1.1687821874    -0.7414668983
    7      H       1.4646041582     0.3026932331     0.9543326657
    8      H       1.9156610141    -1.1908993416    -1.0675479000
    9      H       0.4388624926    -3.3861791893    -0.7012148714
   10      H      -2.3359724452     1.5195414572     0.7181864266
   11      H      -0.7411864233     2.6391701237    -1.1874133814
   12      C      -0.6696225751     0.1198750369     0.9422142342
   13      H      -0.9848936827    -0.5701043967     1.7150158803
 ----------------------------------------------------------------

   10    -286.8749137886      5.40E-09 Convergence criterion met
 Total energy in the final basis set = -286.87491379
 Final energy is   -286.874913788648
 **  OPTIMIZATION CONVERGED  **

                    Orbital Energies (a.u.)
 --------------------------------------------------------------

 Alpha MOs
 -- Occupied --
-14.336 -10.239 -10.235 -10.222 -10.215 -10.213 -10.208  -0.955
 -0.803  -0.776  -0.715  -0.606  -0.566  -0.547  -0.517  -0.478
 -0.458  -0.417  -0.408  -0.381  -0.337  -0.286  -0.278  -0.266
 -0.245

 Beta MOs
 -- Occupied --
-14.336 -10.238 -10.235 -10.217 -10.213 -10.208 -10.207  -0.955
 -0.794  -0.775  -0.704  -0.597  -0.565  -0.539  -0.514  -0.467
 -0.453  -0.415  -0.407  -0.376  -0.335  -0.281  -0.274  -0.264

          Ground-State Mulliken Net Atomic Charges

     Atom                 Charge (a.u.)    Spin (a.u.)
  --------------------------------------------------------
      1 C                    -0.042287       0.082045
      2 C                    -0.108211      -0.310214
      3 C                    -0.225134       1.161996
      4 C                     0.030903      -0.030308
      5 C                    -0.147653       0.014360
      6 N                    -0.207391      -0.003969
      7 H                     0.178073      -0.004862
      8 H                     0.158858       0.078680
      9 H                     0.154740       0.008782
     10 H                     0.134621       0.000245
     11 H                     0.131606      -0.000089
     12 C                    -0.203807       0.003337
     13 H                     0.145684      -0.000002
  --------------------------------------------------------
  Sum of atomic charges =     0.000000

                    Cartesian Multipole Moments
 -----------------------------------------------------------------
    Charge (ESU x 10^10)
                 0.0000
    Dipole Moment (Debye)
         X      -0.9676      Y      -0.4880      Z       1.1526
       Tot       1.5820
    Quadrupole Moments (Debye-Ang)
        XX     -40.4588     XY      -4.8717     YY     -38.5951
        XZ       0.4628     YZ       1.5059     ZZ     -42.9229

 Total job time:  167.10s(wall), 570.22s(cpu)
        *  Thank you very much for using Q-Chem.  Have a nice day.  *
