 Q-Chem 5.0, Q-Chem, Inc., Pleasanton, CA (2017)
 Q-Chem 5.0.2 for Intel X86 EM64T Linux

User input:
--------------------------------------------------------------
$molecule
0 2
C        0.6483972425    0.0835953167    0.2973282899
C        1.0785925012   -1.2142706957   -0.3622277224
C        0.4245080594   -2.3505531995   -0.3079803595
C       -1.3987490325    1.1291146429    0.3406471814
C       -0.4703795498    1.7538297523   -0.6125607587
N        0.6886141214    1.1917338364   -0.6756297385
H        1.3933579009    0.3309098018    1.0738806583
H        2.0215288452   -1.1395391840   -0.9164208038
H        0.5563983417   -3.3576621815   -0.6828366767
H       -2.4150626455    1.4514962141    0.5368395216
H       -0.7045498392    2.6207759088   -1.2294916450
C       -0.7336122001    0.1003825362    0.8960211307
H       -1.0890437453   -0.5998127484    1.6424309228
$end

$rem
method                b3lyp
basis                 6-31g(d)
unrestricted          true
symmetry              off
sym_ignore            true
incdft                false
incfock               0
scf_convergence       8
thresh                14
jobtype               opt
scf_guess             core
scf_guess_mix         5
scf_algorithm         diis
max_scf_cycles        100
geom_opt_max_cycles   300
$end

--------------------------------------------------------------

   22    -286.8505497768      7.62E-09 Convergence criterion met
 Total energy in the final basis set = -286.85054978
   17    -286.8505514043      4.97E-09 Convergence criterion met
 Total energy in the final basis set = -286.85055140
   17    -286.8505524997      4.99E-09 Convergence criterion met
 Total energy in the final basis set = -286.85055250

             Standard Nuclear Orientation (Angstroms)
    I     Atom           X                Y                Z
 ----------------------------------------------------------------
    1      C       0.6494309750     0.0839862179     0.2983322321
    2      C       1.0799737859    -1.2140661537    -0.3597843021
    3      C       0.4228154477    -2.3485818540    -0.3095041724
    4      C      -1.3982601824     1.1290312803     0.3414389654
    5      C      -0.4704153827     1.7516647742    -0.6140221359
    6      N       0.6894297683     1.1906028703    -0.6756406850
    7      H       1.3932951277     0.3330076758     1.0755996055
    8      H       2.0230753135    -1.1395481907    -0.9138067931
    9      H       0.5523013233    -3.3546941907    -0.6880575142
   10      H      -2.4150483560     1.4503882387     0.5372059113
   11      H      -0.7061292583     2.6171070148    -1.2324926230
   12      C      -0.7327005204     0.1007431991     0.8971880473
   13      H      -1.0877680418    -0.5996408818     1.6435434643
 ----------------------------------------------------------------

   17    -286.8505525924      4.99E-09 Convergence criterion met
 Total energy in the final basis set = -286.85055259
 Final energy is   -286.850552592407
 **  OPTIMIZATION CONVERGED  **

                    Orbital Energies (a.u.)
 --------------------------------------------------------------

 Alpha MOs
 -- Occupied --
-14.321 -10.227 -10.224 -10.209 -10.202 -10.201 -10.196  -0.943
 -0.790  -0.765  -0.704  -0.595  -0.556  -0.537  -0.507  -0.469
 -0.446  -0.405  -0.398  -0.370  -0.326  -0.274  -0.265  -0.254
 -0.234

 Beta MOs
 -- Occupied --
-14.321 -10.226 -10.224 -10.204 -10.201 -10.196 -10.193  -0.943
 -0.782  -0.764  -0.692  -0.587  -0.555  -0.529  -0.504  -0.458
 -0.441  -0.403  -0.397  -0.365  -0.324  -0.268  -0.261  -0.252

          Ground-State Mulliken Net Atomic Charges

     Atom                 Charge (a.u.)    Spin (a.u.)
  --------------------------------------------------------
      1 C                    -0.069617       0.042894
      2 C                    -0.103028      -0.167431
      3 C                    -0.198428       1.040354
      4 C                    -0.142510       0.000325
      5 C                     0.055907       0.004778
      6 N                    -0.377437      -0.003513
      7 H                     0.180857      -0.004340
      8 H                     0.163962       0.078629
      9 H                     0.163942       0.004928
     10 H                     0.140221       0.000135
     11 H                     0.143485      -0.000143
     12 C                    -0.110509       0.002909
     13 H                     0.153153       0.000474
  --------------------------------------------------------
  Sum of atomic charges =    -0.000000

                    Cartesian Multipole Moments
 -----------------------------------------------------------------
    Charge (ESU x 10^10)
                -0.0000
    Dipole Moment (Debye)
         X      -0.9655      Y      -0.5569      Z       1.0300
       Tot       1.5176
    Quadrupole Moments (Debye-Ang)
        XX     -38.9371     XY      -4.4540     YY     -37.6510
        XZ       0.5213     YZ       1.0278     ZZ     -41.1309

 Total job time:  87.42s(wall), 216.87s(cpu)
        *  Thank you very much for using Q-Chem.  Have a nice day.  *
