 Q-Chem 5.0, Q-Chem, Inc., Pleasanton, CA (2017)
 Q-Chem 5.0.2 for Intel X86 EM64T Linux

User input:
--------------------------------------------------------------
$molecule
0 2
C        0.9824701920    0.2224775865    0.1292569563
C        1.2078741355   -1.1612426746   -0.4232083438
C        0.1511540003   -1.9315356372   -0.2599592418
C       -1.3607733874    0.9174102665    0.3196551170
C       -0.5281539919    1.7561601155   -0.5116603855
N        0.6878249502    1.3676044774   -0.6964053495
H        1.9194644110    0.5472551141    0.6443876805
H        2.1861105165   -1.5252823242   -0.7254564371
H       -0.0503610344   -2.9996625779   -0.2968206815
H       -2.4168004990    1.1062465600    0.4926005376
H       -0.8907322895    2.6897412534   -0.9491016691
C       -0.6733536936   -0.1312265108    0.8387767989
H       -1.2727167788   -0.8700774277    1.3929869601
$end

$rem
method                b3lyp
basis                 6-31g(d)
unrestricted          true
symmetry              off
sym_ignore            true
incdft                false
incfock               0
scf_convergence       8
thresh                14
jobtype               ts
scf_guess             read
scf_algorithm         diis
max_scf_cycles        100
geom_opt_max_cycles   500
geom_opt_dmax         100
geom_opt_tol_gradient 10
geom_opt_hessian      read
$end

--------------------------------------------------------------

    2    -286.7828412618      2.07E-09 Convergence criterion met
 Total energy in the final basis set = -286.78284126
   16    -286.7872052291      6.09E-09 Convergence criterion met
 Total energy in the final basis set = -286.78720523
   16    -286.7925394490      4.92E-09 Convergence criterion met
 Total energy in the final basis set = -286.79253945
   15    -286.7983237026      6.78E-09 Convergence criterion met
 Total energy in the final basis set = -286.79832370
   15    -286.8037909236      5.78E-09 Convergence criterion met
 Total energy in the final basis set = -286.80379092
   15    -286.8088970562      4.97E-09 Convergence criterion met
 Total energy in the final basis set = -286.80889706
   15    -286.8134626467      4.31E-09 Convergence criterion met
 Total energy in the final basis set = -286.81346265
   15    -286.8174058492      3.73E-09 Convergence criterion met
   10    -286.8334023325      3.98E-09 Convergence criterion met
 Total energy in the final basis set = -286.83340233
    8    -286.8334023328      8.18E-09 Convergence criterion met
 Total energy in the final basis set = -286.83340233
    9    -286.8334023327      9.54E-09 Convergence criterion met
 Total energy in the final basis set = -286.83340233
    7    -286.8334023321      6.50E-09 Convergence criterion met
 Total energy in the final basis set = -286.83340233
    9    -286.8334023332      5.70E-09 Convergence criterion met
 Total energy in the final basis set = -286.83340233
    9    -286.8334023300      6.59E-09 Convergence criterion met
 Total energy in the final basis set = -286.83340233

             Standard Nuclear Orientation (Angstroms)
    I     Atom           X                Y                Z
 ----------------------------------------------------------------
    1      C       0.9049090934     0.1915222163     0.3290767105
    2      C       1.1541311811    -1.1076189239    -0.4012587283
    3      C       0.0472147489    -1.8206382674    -0.2951709265
    4      C      -1.3308486008     0.8340732505     0.2734884230
    5      C      -0.4986103740     1.6183537314    -0.6181837736
    6      N       0.7626071666     1.3031229450    -0.6218244138
    7      H       1.6567156605     0.4511160394     1.0876101645
    8      H       2.0664866584    -1.3306844147    -0.9563948803
    9      H      -0.3351648483    -2.7767567849    -0.6406733430
   10      H      -2.3992278677     0.9522609213     0.4114826850
   11      H      -0.8673510402     2.4195828119    -1.2579684015
   12      C      -0.5021459105    -0.0922679837     0.8717336161
   13      H      -0.7167093365    -0.6541973203     1.7731348102
 ----------------------------------------------------------------

    9    -286.8334023319      4.71E-09 Convergence criterion met
 Total energy in the final basis set = -286.83340233
 Final energy is   -286.833402331940
 **  OPTIMIZATION CONVERGED  **

                    Orbital Energies (a.u.)
 --------------------------------------------------------------

 Alpha MOs
 -- Occupied --
-14.323 -10.222 -10.222 -10.212 -10.207 -10.199 -10.197  -0.944
 -0.805  -0.760  -0.687  -0.597  -0.556  -0.532  -0.514  -0.479
 -0.431  -0.406  -0.396  -0.358  -0.328  -0.290  -0.273  -0.260
 -0.193

 Beta MOs
 -- Occupied --
-14.318 -10.224 -10.221 -10.215 -10.198 -10.195 -10.194  -0.939
 -0.797  -0.753  -0.680  -0.589  -0.552  -0.525  -0.511  -0.472
 -0.425  -0.403  -0.393  -0.355  -0.316  -0.271  -0.259  -0.254

          Ground-State Mulliken Net Atomic Charges

     Atom                 Charge (a.u.)    Spin (a.u.)
  --------------------------------------------------------
      1 C                    -0.058706       0.036202
      2 C                    -0.081939      -0.123257
      3 C                    -0.177856       0.750003
      4 C                    -0.117097       0.392045
      5 C                     0.054212      -0.130034
      6 N                    -0.363198       0.227160
      7 H                     0.160039       0.012025
      8 H                     0.147397       0.040676
      9 H                     0.148897       0.018364
     10 H                     0.141067      -0.017969
     11 H                     0.142935       0.004477
     12 C                    -0.160499      -0.228153
     13 H                     0.164749       0.018462
  --------------------------------------------------------
  Sum of atomic charges =     0.000000

                    Cartesian Multipole Moments
 -----------------------------------------------------------------
    Charge (ESU x 10^10)
                 0.0000
    Dipole Moment (Debye)
         X      -1.2703      Y      -0.9795      Z       1.0584
       Tot       1.9218
    Quadrupole Moments (Debye-Ang)
        XX     -38.6969     XY      -3.4396     YY     -39.8033
        XZ       1.2581     YZ       1.0565     ZZ     -40.5881

 Total job time:  446.27s(wall), 1170.06s(cpu)
        *  Thank you very much for using Q-Chem.  Have a nice day.  *
