 Q-Chem 5.0, Q-Chem, Inc., Pleasanton, CA (2017)
 Q-Chem 5.0.2 for Intel X86 EM64T Linux

User input:
--------------------------------------------------------------
$molecule
0 2
C        0.9049090934    0.1915222163    0.3290767105
C        1.1541311811   -1.1076189239   -0.4012587283
C        0.0472147489   -1.8206382674   -0.2951709265
C       -1.3308486008    0.8340732505    0.2734884230
C       -0.4986103740    1.6183537314   -0.6181837736
N        0.7626071666    1.3031229450   -0.6218244138
H        1.6567156605    0.4511160394    1.0876101645
H        2.0664866584   -1.3306844147   -0.9563948803
H       -0.3351648483   -2.7767567849   -0.6406733430
H       -2.3992278677    0.9522609213    0.4114826850
H       -0.8673510402    2.4195828119   -1.2579684015
C       -0.5021459105   -0.0922679837    0.8717336161
H       -0.7167093365   -0.6541973203    1.7731348102
$end

$rem
method                b3lyp
basis                 6-31+g(d,p)
unrestricted          true
symmetry              off
sym_ignore            true
incdft                false
incfock               0
scf_convergence       8
thresh                14
jobtype               ts
scf_guess             read
scf_algorithm         diis
max_scf_cycles        100
geom_opt_max_cycles   500
geom_opt_dmax         100
geom_opt_tol_gradient 10
geom_opt_hessian      read
$end

--------------------------------------------------------------

    2    -286.8564419075      8.00E-10 Convergence criterion met
 Total energy in the final basis set = -286.85644191
   13    -286.8564679432      9.47E-09 Convergence criterion met
 Total energy in the final basis set = -286.85646794

             Standard Nuclear Orientation (Angstroms)
    I     Atom           X                Y                Z
 ----------------------------------------------------------------
    1      C       0.9062596326     0.1913601887     0.3259237159
    2      C       1.1593186027    -1.1085564734    -0.4014148950
    3      C       0.0492977700    -1.8209470162    -0.2958271960
    4      C      -1.3325447101     0.8333021752     0.2707529228
    5      C      -0.5018579553     1.6239138817    -0.6171019631
    6      N       0.7605083045     1.3049146494    -0.6217533397
    7      H       1.6561439773     0.4524552822     1.0853012915
    8      H       2.0717133946    -1.3376973863    -0.9527791680
    9      H      -0.3421959452    -2.7757924361    -0.6316153512
   10      H      -2.4005184866     0.9496205783     0.4098558011
   11      H      -0.8683906967     2.4280958766    -1.2524332873
   12      C      -0.5012245677    -0.0965557934     0.8666805642
   13      H      -0.7145027892    -0.6562453058     1.7694628471
 ----------------------------------------------------------------

    8    -286.8564679450      7.71E-09 Convergence criterion met
 Total energy in the final basis set = -286.85646795
 Final energy is   -286.856467945042
 **  OPTIMIZATION CONVERGED  **

                    Orbital Energies (a.u.)
 --------------------------------------------------------------

 Alpha MOs
 -- Occupied --
-14.338 -10.233 -10.233 -10.223 -10.220 -10.210 -10.209  -0.956
 -0.817  -0.771  -0.697  -0.607  -0.566  -0.542  -0.523  -0.489
 -0.442  -0.417  -0.406  -0.368  -0.339  -0.302  -0.285  -0.273
 -0.204

 Beta MOs
 -- Occupied --
-14.333 -10.235 -10.232 -10.226 -10.210 -10.208 -10.205  -0.951
 -0.809  -0.763  -0.691  -0.599  -0.562  -0.534  -0.520  -0.482
 -0.435  -0.413  -0.403  -0.365  -0.327  -0.283  -0.271  -0.266

          Ground-State Mulliken Net Atomic Charges

     Atom                 Charge (a.u.)    Spin (a.u.)
  --------------------------------------------------------
      1 C                     0.060467      -0.010735
      2 C                    -0.117540      -0.121516
      3 C                    -0.225848       0.743978
      4 C                     0.027861       0.392499
      5 C                    -0.142899      -0.129284
      6 N                    -0.220816       0.235739
      7 H                     0.155495       0.013453
      8 H                     0.142806       0.038673
      9 H                     0.141026       0.018337
     10 H                     0.134579      -0.018213
     11 H                     0.131482       0.004574
     12 C                    -0.242828      -0.187954
     13 H                     0.156216       0.020449
  --------------------------------------------------------
  Sum of atomic charges =    -0.000000

                    Cartesian Multipole Moments
 -----------------------------------------------------------------
    Charge (ESU x 10^10)
                -0.0000
    Dipole Moment (Debye)
         X      -1.4042      Y      -1.0419      Z       1.1218
       Tot       2.0774
    Quadrupole Moments (Debye-Ang)
        XX     -39.8945     XY      -3.7243     YY     -41.3415
        XZ       1.5241     YZ       1.1167     ZZ     -42.0986

 Total job time:  54.19s(wall), 170.60s(cpu)
        *  Thank you very much for using Q-Chem.  Have a nice day.  *
