 Q-Chem 5.0, Q-Chem, Inc., Pleasanton, CA (2017)
 Q-Chem 5.0.2 for Intel X86 EM64T Linux

User input:
--------------------------------------------------------------
$molecule
0 2
C        0.9049090934    0.1915222163    0.3290767105
C        1.1541311811   -1.1076189239   -0.4012587283
C        0.0472147489   -1.8206382674   -0.2951709265
C       -1.3308486008    0.8340732505    0.2734884230
C       -0.4986103740    1.6183537314   -0.6181837736
N        0.7626071666    1.3031229450   -0.6218244138
H        1.6567156605    0.4511160394    1.0876101645
H        2.0664866584   -1.3306844147   -0.9563948803
H       -0.3351648483   -2.7767567849   -0.6406733430
H       -2.3992278677    0.9522609213    0.4114826850
H       -0.8673510402    2.4195828119   -1.2579684015
C       -0.5021459105   -0.0922679837    0.8717336161
H       -0.7167093365   -0.6541973203    1.7731348102
$end

$rem
method                b3lyp
basis                 6-31+g(d,p)
unrestricted          true
symmetry              off
sym_ignore            true
incdft                false
incfock               0
scf_convergence       8
thresh                14
jobtype               sp
scf_guess             core
scf_guess_mix         5
scf_algorithm         diis
max_scf_cycles        100
$end

--------------------------------------------------------------

             Standard Nuclear Orientation (Angstroms)
    I     Atom           X                Y                Z
 ----------------------------------------------------------------
    1      C       0.9049090934     0.1915222163     0.3290767105
    2      C       1.1541311811    -1.1076189239    -0.4012587283
    3      C       0.0472147489    -1.8206382674    -0.2951709265
    4      C      -1.3308486008     0.8340732505     0.2734884230
    5      C      -0.4986103740     1.6183537314    -0.6181837736
    6      N       0.7626071666     1.3031229450    -0.6218244138
    7      H       1.6567156605     0.4511160394     1.0876101645
    8      H       2.0664866584    -1.3306844147    -0.9563948803
    9      H      -0.3351648483    -2.7767567849    -0.6406733430
   10      H      -2.3992278677     0.9522609213     0.4114826850
   11      H      -0.8673510402     2.4195828119    -1.2579684015
   12      C      -0.5021459105    -0.0922679837     0.8717336161
   13      H      -0.7167093365    -0.6541973203     1.7731348102
 ----------------------------------------------------------------

   22    -286.8564419075      5.14E-09 Convergence criterion met
 Total energy in the final basis set = -286.85644191

                    Orbital Energies (a.u.)
 --------------------------------------------------------------

 Alpha MOs
 -- Occupied --
-14.338 -10.233 -10.233 -10.223 -10.219 -10.210 -10.209  -0.957
 -0.817  -0.771  -0.698  -0.607  -0.566  -0.541  -0.523  -0.489
 -0.442  -0.417  -0.406  -0.368  -0.339  -0.302  -0.285  -0.273
 -0.205

 Beta MOs
 -- Occupied --
-14.333 -10.235 -10.232 -10.226 -10.210 -10.207 -10.205  -0.952
 -0.809  -0.764  -0.691  -0.599  -0.562  -0.533  -0.520  -0.481
 -0.435  -0.413  -0.403  -0.365  -0.327  -0.284  -0.271  -0.267

          Ground-State Mulliken Net Atomic Charges

     Atom                 Charge (a.u.)    Spin (a.u.)
  --------------------------------------------------------
      1 C                     0.063936      -0.009566
      2 C                    -0.117787      -0.124079
      3 C                    -0.227619       0.754486
      4 C                     0.031024       0.380645
      5 C                    -0.144803      -0.124747
      6 N                    -0.221749       0.227972
      7 H                     0.155450       0.012773
      8 H                     0.143200       0.039545
      9 H                     0.140648       0.019383
     10 H                     0.134674      -0.017764
     11 H                     0.131018       0.004437
     12 C                    -0.244264      -0.183176
     13 H                     0.156271       0.020091
  --------------------------------------------------------
  Sum of atomic charges =     0.000000

                    Cartesian Multipole Moments
 -----------------------------------------------------------------
    Charge (ESU x 10^10)
                 0.0000
    Dipole Moment (Debye)
         X      -1.4006      Y      -1.0282      Z       1.1183
       Tot       2.0662
    Quadrupole Moments (Debye-Ang)
        XX     -39.8940     XY      -3.7226     YY     -41.4070
        XZ       1.5139     YZ       1.1332     ZZ     -42.0537

 Total job time:  37.74s(wall), 112.78s(cpu)
        *  Thank you very much for using Q-Chem.  Have a nice day.  *
