 Q-Chem 5.0, Q-Chem, Inc., Pleasanton, CA (2017)
 Q-Chem 5.0.2 for Intel X86 EM64T Linux

User input:
--------------------------------------------------------------
$molecule
0 2
C        0.9049090934    0.1915222163    0.3290767105
C        1.1541311811   -1.1076189239   -0.4012587283
C        0.0472147489   -1.8206382674   -0.2951709265
C       -1.3308486008    0.8340732505    0.2734884230
C       -0.4986103740    1.6183537314   -0.6181837736
N        0.7626071666    1.3031229450   -0.6218244138
H        1.6567156605    0.4511160394    1.0876101645
H        2.0664866584   -1.3306844147   -0.9563948803
H       -0.3351648483   -2.7767567849   -0.6406733430
H       -2.3992278677    0.9522609213    0.4114826850
H       -0.8673510402    2.4195828119   -1.2579684015
C       -0.5021459105   -0.0922679837    0.8717336161
H       -0.7167093365   -0.6541973203    1.7731348102
$end

$rem
method                b3lyp
basis                 6-31+g(d,p)
unrestricted          true
symmetry              off
sym_ignore            true
incdft                false
incfock               0
scf_convergence       8
thresh                14
jobtype               freq
scf_guess             read
scf_algorithm         diis
max_scf_cycles        100
$end

--------------------------------------------------------------

             Standard Nuclear Orientation (Angstroms)
    I     Atom           X                Y                Z
 ----------------------------------------------------------------
    1      C       0.9049090934     0.1915222163     0.3290767105
    2      C       1.1541311811    -1.1076189239    -0.4012587283
    3      C       0.0472147489    -1.8206382674    -0.2951709265
    4      C      -1.3308486008     0.8340732505     0.2734884230
    5      C      -0.4986103740     1.6183537314    -0.6181837736
    6      N       0.7626071666     1.3031229450    -0.6218244138
    7      H       1.6567156605     0.4511160394     1.0876101645
    8      H       2.0664866584    -1.3306844147    -0.9563948803
    9      H      -0.3351648483    -2.7767567849    -0.6406733430
   10      H      -2.3992278677     0.9522609213     0.4114826850
   11      H      -0.8673510402     2.4195828119    -1.2579684015
   12      C      -0.5021459105    -0.0922679837     0.8717336161
   13      H      -0.7167093365    -0.6541973203     1.7731348102
 ----------------------------------------------------------------

    2    -286.8564419075      2.01E-09 Convergence criterion met
 Total energy in the final basis set = -286.85644191

                    Orbital Energies (a.u.)
 --------------------------------------------------------------

 Alpha MOs
 -- Occupied --
-14.338 -10.233 -10.233 -10.223 -10.219 -10.210 -10.209  -0.957
 -0.817  -0.771  -0.698  -0.607  -0.566  -0.541  -0.523  -0.489
 -0.442  -0.417  -0.406  -0.368  -0.339  -0.302  -0.285  -0.273
 -0.205

 Beta MOs
 -- Occupied --
-14.333 -10.235 -10.232 -10.226 -10.210 -10.207 -10.205  -0.952
 -0.809  -0.764  -0.691  -0.599  -0.562  -0.533  -0.520  -0.481
 -0.435  -0.413  -0.403  -0.365  -0.327  -0.284  -0.271  -0.267

          Ground-State Mulliken Net Atomic Charges

     Atom                 Charge (a.u.)    Spin (a.u.)
  --------------------------------------------------------
      1 C                     0.063936      -0.009569
      2 C                    -0.117787      -0.124069
      3 C                    -0.227619       0.754476
      4 C                     0.031024       0.380644
      5 C                    -0.144803      -0.124751
      6 N                    -0.221749       0.227977
      7 H                     0.155450       0.012773
      8 H                     0.143200       0.039545
      9 H                     0.140648       0.019384
     10 H                     0.134674      -0.017764
     11 H                     0.131018       0.004437
     12 C                    -0.244264      -0.183174
     13 H                     0.156271       0.020090
  --------------------------------------------------------
  Sum of atomic charges =     0.000000

                    Cartesian Multipole Moments
 -----------------------------------------------------------------
    Charge (ESU x 10^10)
                 0.0000
    Dipole Moment (Debye)
         X      -1.4006      Y      -1.0282      Z       1.1183
       Tot       2.0662
    Quadrupole Moments (Debye-Ang)
        XX     -39.8940     XY      -3.7226     YY     -41.4070
        XZ       1.5139     YZ       1.1332     ZZ     -42.0537

 Frequency:      -579.51                 224.11                 246.96
 Force Cnst:      1.1316                 0.1066                 0.1212
 Red. Mass:       5.7190                 3.6020                 3.3719
 IR Intens:        0.721                  1.383                  3.929
 Frequency:       380.53                 563.12                 646.42
 Force Cnst:      0.2582                 0.4538                 0.7614
 Red. Mass:       3.0260                 2.4291                 3.0928
 IR Intens:        8.585                 12.479                  9.519
 Frequency:       671.05                 754.35                 813.95
 Force Cnst:      0.4349                 0.4245                 1.0406
 Red. Mass:       1.6392                 1.2662                 2.6659
 IR Intens:       43.345                 57.747                 31.895
 Frequency:       836.19                 851.29                 872.90
 Force Cnst:      0.9772                 0.7490                 0.7921
 Red. Mass:       2.3720                 1.7542                 1.7644
 IR Intens:        7.752                 10.344                  2.342
 Frequency:       885.72                 918.40                 971.00
 Force Cnst:      0.6728                 1.0299                 0.8699
 Red. Mass:       1.4555                 2.0724                 1.5660
 IR Intens:        6.571                 17.926                  0.579
 Frequency:      1001.25                1017.66                1023.60
 Force Cnst:      1.3097                 1.0234                 1.2089
 Red. Mass:       2.2173                 1.6772                 1.9583
 IR Intens:       20.689                  5.640                  6.085
 Frequency:      1090.99                1202.32                1233.90
 Force Cnst:      0.9248                 1.1885                 1.7398
 Red. Mass:       1.3188                 1.3955                 1.9395
 IR Intens:        4.209                 34.601                  4.554
 Frequency:      1251.13                1313.67                1376.72
 Force Cnst:      1.2598                 1.5697                 2.0981
 Red. Mass:       1.3660                 1.5438                 1.8789
 IR Intens:        8.275                  2.320                 19.058
 Frequency:      1407.36                1577.05                1655.77
 Force Cnst:      6.1920                 7.6632                10.3496
 Red. Mass:       5.3060                 5.2296                 6.4073
 IR Intens:       21.916                  6.399                  9.062
 Frequency:      3041.85                3137.74                3167.26
 Force Cnst:      5.9071                 6.3000                 6.4572
 Red. Mass:       1.0836                 1.0861                 1.0925
 IR Intens:       15.355                 15.957                 27.557
 Frequency:      3210.72                3223.58                3241.52
 Force Cnst:      6.7380                 6.6640                 6.8144
 Red. Mass:       1.1094                 1.0884                 1.1007
 IR Intens:        4.236                  2.350                  5.747

 STANDARD THERMODYNAMIC QUANTITIES AT   298.15 K  AND     1.00 ATM

   This Molecule has  1 Imaginary Frequencies
   Zero point vibrational energy:       62.630 kcal/mol

   Atom    1 Element C  Has Mass   12.00000
   Atom    2 Element C  Has Mass   12.00000
   Atom    3 Element C  Has Mass   12.00000
   Atom    4 Element C  Has Mass   12.00000
   Atom    5 Element C  Has Mass   12.00000
   Atom    6 Element N  Has Mass   14.00307
   Atom    7 Element H  Has Mass    1.00783
   Atom    8 Element H  Has Mass    1.00783
   Atom    9 Element H  Has Mass    1.00783
   Atom   10 Element H  Has Mass    1.00783
   Atom   11 Element H  Has Mass    1.00783
   Atom   12 Element C  Has Mass   12.00000
   Atom   13 Element H  Has Mass    1.00783
   Molecular Mass:    92.050050 amu
   Principal axes and moments of inertia in amu*Bohr^2:
                             1           2           3
    Eigenvalues --      337.11505   604.51909   772.87888
          X              -0.37446     0.85140     0.36728
          Y               0.92707     0.33603     0.16622
          Z              -0.01811    -0.40273     0.91514
   Rotational Symmetry Number is   1
   The Molecule is an Asymmetric Top
   Translational Enthalpy:        0.889 kcal/mol
   Rotational Enthalpy:           0.889 kcal/mol
   Vibrational Enthalpy:         64.200 kcal/mol
   gas constant (RT):             0.592 kcal/mol
   Translational Entropy:        39.471  cal/mol.K
   Rotational Entropy:           26.557  cal/mol.K
   Vibrational Entropy:           7.800  cal/mol.K

   Total Enthalpy:               66.570 kcal/mol
   Total Entropy:                73.828  cal/mol.K

 Total job time:  563.32s(wall), 548.41s(cpu)
        *  Thank you very much for using Q-Chem.  Have a nice day.  *
