 Q-Chem 5.0, Q-Chem, Inc., Pleasanton, CA (2017)
 Q-Chem 5.0.2 for Intel X86 EM64T Linux

User input:
--------------------------------------------------------------
$molecule
0 2
C        0.9049090934    0.1915222163    0.3290767105
C        1.1541311811   -1.1076189239   -0.4012587283
C        0.0472147489   -1.8206382674   -0.2951709265
C       -1.3308486008    0.8340732505    0.2734884230
C       -0.4986103740    1.6183537314   -0.6181837736
N        0.7626071666    1.3031229450   -0.6218244138
H        1.6567156605    0.4511160394    1.0876101645
H        2.0664866584   -1.3306844147   -0.9563948803
H       -0.3351648483   -2.7767567849   -0.6406733430
H       -2.3992278677    0.9522609213    0.4114826850
H       -0.8673510402    2.4195828119   -1.2579684015
C       -0.5021459105   -0.0922679837    0.8717336161
H       -0.7167093365   -0.6541973203    1.7731348102
$end

$rem
method                b3lyp
basis                 6-31g(d)
unrestricted          true
symmetry              off
sym_ignore            true
incdft                false
incfock               0
scf_convergence       6
thresh                14
jobtype               sp
scf_guess             read
scf_algorithm         diis
max_scf_cycles        100
stability_analysis    true
max_cis_cycles        100
cis_n_roots           4
$end

--------------------------------------------------------------

             Standard Nuclear Orientation (Angstroms)
    I     Atom           X                Y                Z
 ----------------------------------------------------------------
    1      C       0.9049090934     0.1915222163     0.3290767105
    2      C       1.1541311811    -1.1076189239    -0.4012587283
    3      C       0.0472147489    -1.8206382674    -0.2951709265
    4      C      -1.3308486008     0.8340732505     0.2734884230
    5      C      -0.4986103740     1.6183537314    -0.6181837736
    6      N       0.7626071666     1.3031229450    -0.6218244138
    7      H       1.6567156605     0.4511160394     1.0876101645
    8      H       2.0664866584    -1.3306844147    -0.9563948803
    9      H      -0.3351648483    -2.7767567849    -0.6406733430
   10      H      -2.3992278677     0.9522609213     0.4114826850
   11      H      -0.8673510402     2.4195828119    -1.2579684015
   12      C      -0.5021459105    -0.0922679837     0.8717336161
   13      H      -0.7167093365    -0.6541973203     1.7731348102
 ----------------------------------------------------------------

    2    -286.8334023401      1.45E-09 Convergence criterion met
 Total energy in the final basis set = -286.83340234

         TDDFT/TDA Excitation Energies
 ---------------------------------------------------

 Excited state   1: excitation energy (eV) =    2.9311
 Total energy for state  1:                  -286.72568776 au
    <S**2>     :  0.9387
    Trans. Mom.: -0.0843 X   0.0031 Y   0.0059 Z
    Strength   :     0.0005137645
    S(  1) --> V(  1) amplitude =  0.7624 alpha
    D( 23) --> S(  1) amplitude =  0.5911 beta
    D( 24) --> S(  1) amplitude =  0.1797 beta

 Excited state   2: excitation energy (eV) =    3.0728
 Total energy for state  2:                  -286.72047762 au
    <S**2>     :  0.9112
    Trans. Mom.:  0.0307 X   0.0092 Y   0.0359 Z
    Strength   :     0.0001744181
    S(  1) --> V(  1) amplitude = -0.1528 alpha
    S(  1) --> V(  2) amplitude = -0.1557 alpha
    D( 22) --> S(  1) amplitude =  0.1804 beta
    D( 24) --> S(  1) amplitude =  0.9343 beta

 Excited state   3: excitation energy (eV) =    3.4544
 Total energy for state  3:                  -286.70645689 au
    <S**2>     :  1.0534
    Trans. Mom.: -0.0629 X   0.0567 Y  -0.0307 Z
    Strength   :     0.0006861384
    S(  1) --> V(  1) amplitude = -0.2089 alpha
    D( 22) --> S(  1) amplitude =  0.8007 beta
    D( 23) --> S(  1) amplitude =  0.4252 beta
    D( 24) --> S(  1) amplitude = -0.1656 beta
    D( 24) --> V(  1) amplitude =  0.2181 beta

 Excited state   4: excitation energy (eV) =    3.9653
 Total energy for state  4:                  -286.68768002 au
    <S**2>     :  0.8429
    Trans. Mom.: -0.0430 X   0.5082 Y   0.0395 Z
    Strength   :     0.0254240906
    S(  1) --> V(  1) amplitude = -0.4034 alpha
    S(  1) --> V(  2) amplitude =  0.7191 alpha
    D( 22) --> S(  1) amplitude = -0.1811 beta
    D( 23) --> S(  1) amplitude =  0.4599 beta

 ---------------------------------------------------

                    Orbital Energies (a.u.)
 --------------------------------------------------------------

 Alpha MOs
 -- Occupied --
-14.323 -10.222 -10.222 -10.212 -10.207 -10.199 -10.197  -0.944
 -0.805  -0.760  -0.687  -0.597  -0.556  -0.532  -0.514  -0.479
 -0.431  -0.406  -0.396  -0.358  -0.328  -0.290  -0.273  -0.260
 -0.193

 Beta MOs
 -- Occupied --
-14.318 -10.224 -10.221 -10.215 -10.198 -10.195 -10.194  -0.939
 -0.797  -0.753  -0.680  -0.589  -0.552  -0.525  -0.511  -0.472
 -0.425  -0.403  -0.393  -0.355  -0.316  -0.271  -0.259  -0.254

          Ground-State Mulliken Net Atomic Charges

     Atom                 Charge (a.u.)    Spin (a.u.)
  --------------------------------------------------------
      1 C                    -0.058706       0.036201
      2 C                    -0.081939      -0.123255
      3 C                    -0.177856       0.750001
      4 C                    -0.117097       0.392047
      5 C                     0.054212      -0.130037
      6 N                    -0.363198       0.227164
      7 H                     0.160039       0.012025
      8 H                     0.147397       0.040675
      9 H                     0.148897       0.018364
     10 H                     0.141067      -0.017969
     11 H                     0.142935       0.004478
     12 C                    -0.160499      -0.228155
     13 H                     0.164749       0.018462
  --------------------------------------------------------
  Sum of atomic charges =    -0.000000

                    Cartesian Multipole Moments
 -----------------------------------------------------------------
    Charge (ESU x 10^10)
                -0.0000
    Dipole Moment (Debye)
         X      -1.2703      Y      -0.9795      Z       1.0584
       Tot       1.9218
    Quadrupole Moments (Debye-Ang)
        XX     -38.6969     XY      -3.4396     YY     -39.8033
        XZ       1.2581     YZ       1.0565     ZZ     -40.5881

 Total job time:  92.65s(wall), 85.15s(cpu)
        *  Thank you very much for using Q-Chem.  Have a nice day.  *
