 Q-Chem 5.0, Q-Chem, Inc., Pleasanton, CA (2017)
 Q-Chem 5.0.2 for Intel X86 EM64T Linux

User input:
--------------------------------------------------------------
$molecule
0 2
C        0.9062596326    0.1913601887    0.3259237159
C        1.1593186027   -1.1085564734   -0.4014148950
C        0.0492977700   -1.8209470162   -0.2958271960
C       -1.3325447101    0.8333021752    0.2707529228
C       -0.5018579553    1.6239138817   -0.6171019631
N        0.7605083045    1.3049146494   -0.6217533397
H        1.6561439773    0.4524552822    1.0853012915
H        2.0717133946   -1.3376973863   -0.9527791680
H       -0.3421959452   -2.7757924361   -0.6316153512
H       -2.4005184866    0.9496205783    0.4098558011
H       -0.8683906967    2.4280958766   -1.2524332873
C       -0.5012245677   -0.0965557934    0.8666805642
H       -0.7145027892   -0.6562453058    1.7694628471
$end

$rem
method                b3lyp
basis                 6-31+g(d,p)
unrestricted          true
symmetry              off
sym_ignore            true
incdft                false
incfock               0
scf_convergence       8
thresh                14
jobtype               freq
scf_guess             read
scf_algorithm         diis
max_scf_cycles        100
$end

--------------------------------------------------------------

             Standard Nuclear Orientation (Angstroms)
    I     Atom           X                Y                Z
 ----------------------------------------------------------------
    1      C       0.9062596326     0.1913601887     0.3259237159
    2      C       1.1593186027    -1.1085564734    -0.4014148950
    3      C       0.0492977700    -1.8209470162    -0.2958271960
    4      C      -1.3325447101     0.8333021752     0.2707529228
    5      C      -0.5018579553     1.6239138817    -0.6171019631
    6      N       0.7605083045     1.3049146494    -0.6217533397
    7      H       1.6561439773     0.4524552822     1.0853012915
    8      H       2.0717133946    -1.3376973863    -0.9527791680
    9      H      -0.3421959452    -2.7757924361    -0.6316153512
   10      H      -2.4005184866     0.9496205783     0.4098558011
   11      H      -0.8683906967     2.4280958766    -1.2524332873
   12      C      -0.5012245677    -0.0965557934     0.8666805642
   13      H      -0.7145027892    -0.6562453058     1.7694628471
 ----------------------------------------------------------------

    2    -286.8564679451      8.06E-10 Convergence criterion met
 Total energy in the final basis set = -286.85646795

                    Orbital Energies (a.u.)
 --------------------------------------------------------------

 Alpha MOs
 -- Occupied --
-14.338 -10.233 -10.233 -10.223 -10.220 -10.210 -10.209  -0.956
 -0.817  -0.771  -0.697  -0.607  -0.566  -0.542  -0.523  -0.489
 -0.442  -0.417  -0.406  -0.368  -0.339  -0.302  -0.285  -0.273
 -0.204

 Beta MOs
 -- Occupied --
-14.333 -10.235 -10.232 -10.226 -10.210 -10.208 -10.205  -0.951
 -0.809  -0.763  -0.691  -0.599  -0.562  -0.534  -0.520  -0.482
 -0.435  -0.413  -0.403  -0.365  -0.327  -0.283  -0.271  -0.266

          Ground-State Mulliken Net Atomic Charges

     Atom                 Charge (a.u.)    Spin (a.u.)
  --------------------------------------------------------
      1 C                     0.060467      -0.010734
      2 C                    -0.117540      -0.121520
      3 C                    -0.225848       0.743982
      4 C                     0.027861       0.392496
      5 C                    -0.142899      -0.129279
      6 N                    -0.220816       0.235734
      7 H                     0.155495       0.013453
      8 H                     0.142806       0.038673
      9 H                     0.141026       0.018337
     10 H                     0.134579      -0.018213
     11 H                     0.131482       0.004573
     12 C                    -0.242828      -0.187951
     13 H                     0.156216       0.020449
  --------------------------------------------------------
  Sum of atomic charges =    -0.000000

                    Cartesian Multipole Moments
 -----------------------------------------------------------------
    Charge (ESU x 10^10)
                -0.0000
    Dipole Moment (Debye)
         X      -1.4042      Y      -1.0419      Z       1.1218
       Tot       2.0774
    Quadrupole Moments (Debye-Ang)
        XX     -39.8945     XY      -3.7243     YY     -41.3415
        XZ       1.5241     YZ       1.1167     ZZ     -42.0986

 Frequency:      -591.49                 227.56                 249.52
 Force Cnst:      1.1842                 0.1076                 0.1239
 Red. Mass:       5.7448                 3.5275                 3.3765
 IR Intens:        0.624                  1.871                  3.641
 Frequency:       381.70                 562.57                 646.60
 Force Cnst:      0.2579                 0.4440                 0.7054
 Red. Mass:       3.0041                 2.3810                 2.8637
 IR Intens:        8.902                 12.889                 13.335
 Frequency:       667.87                 751.89                 811.21
 Force Cnst:      0.4521                 0.4201                 0.8943
 Red. Mass:       1.7202                 1.2613                 2.3066
 IR Intens:       39.105                 59.319                 34.528
 Frequency:       833.25                 847.45                 871.05
 Force Cnst:      0.9185                 0.8374                 0.8037
 Red. Mass:       2.2454                 1.9790                 1.7978
 IR Intens:        7.907                  7.297                  2.097
 Frequency:       882.69                 915.41                 966.78
 Force Cnst:      0.6741                 1.0426                 0.8566
 Red. Mass:       1.4685                 2.1117                 1.5556
 IR Intens:        6.165                 16.766                  0.729
 Frequency:       999.37                1017.31                1021.92
 Force Cnst:      1.3019                 1.0620                 1.1773
 Red. Mass:       2.2125                 1.7416                 1.9135
 IR Intens:       21.406                  6.314                  5.094
 Frequency:      1088.30                1200.87                1233.78
 Force Cnst:      0.9237                 1.1790                 1.7648
 Red. Mass:       1.3236                 1.3876                 1.9678
 IR Intens:        4.042                 33.797                  4.335
 Frequency:      1249.43                1310.46                1374.31
 Force Cnst:      1.2552                 1.5753                 2.1009
 Red. Mass:       1.3647                 1.5569                 1.8879
 IR Intens:        8.697                  2.542                 18.910
 Frequency:      1396.35                1566.64                1646.46
 Force Cnst:      5.9211                 7.3995                10.1857
 Red. Mass:       5.1542                 5.1169                 6.3773
 IR Intens:       22.247                  6.150                  8.874
 Frequency:      3044.84                3143.70                3178.60
 Force Cnst:      5.9186                 6.3258                 6.5031
 Red. Mass:       1.0835                 1.0864                 1.0924
 IR Intens:       15.421                 16.282                 26.038
 Frequency:      3219.55                3226.47                3244.94
 Force Cnst:      6.7715                 6.6775                 6.8259
 Red. Mass:       1.1088                 1.0887                 1.1003
 IR Intens:        3.736                  2.119                  6.206

 STANDARD THERMODYNAMIC QUANTITIES AT   298.15 K  AND     1.00 ATM

   This Molecule has  1 Imaginary Frequencies
   Zero point vibrational energy:       62.585 kcal/mol

   Atom    1 Element C  Has Mass   12.00000
   Atom    2 Element C  Has Mass   12.00000
   Atom    3 Element C  Has Mass   12.00000
   Atom    4 Element C  Has Mass   12.00000
   Atom    5 Element C  Has Mass   12.00000
   Atom    6 Element N  Has Mass   14.00307
   Atom    7 Element H  Has Mass    1.00783
   Atom    8 Element H  Has Mass    1.00783
   Atom    9 Element H  Has Mass    1.00783
   Atom   10 Element H  Has Mass    1.00783
   Atom   11 Element H  Has Mass    1.00783
   Atom   12 Element C  Has Mass   12.00000
   Atom   13 Element H  Has Mass    1.00783
   Molecular Mass:    92.050050 amu
   Principal axes and moments of inertia in amu*Bohr^2:
                             1           2           3
    Eigenvalues --      336.62957   605.77024   774.79422
          X              -0.37570     0.85210     0.36438
          Y               0.92655     0.33740     0.16633
          Z              -0.01879    -0.40010     0.91628
   Rotational Symmetry Number is   1
   The Molecule is an Asymmetric Top
   Translational Enthalpy:        0.889 kcal/mol
   Rotational Enthalpy:           0.889 kcal/mol
   Vibrational Enthalpy:         64.155 kcal/mol
   gas constant (RT):             0.592 kcal/mol
   Translational Entropy:        39.471  cal/mol.K
   Rotational Entropy:           26.560  cal/mol.K
   Vibrational Entropy:           7.775  cal/mol.K

   Total Enthalpy:               66.525 kcal/mol
   Total Entropy:                73.806  cal/mol.K

 Total job time:  573.30s(wall), 549.25s(cpu)
        *  Thank you very much for using Q-Chem.  Have a nice day.  *
