 Q-Chem 5.0, Q-Chem, Inc., Pleasanton, CA (2017)
 Q-Chem 5.0.2 for Intel X86 EM64T Linux

User input:
--------------------------------------------------------------
$molecule
0 2
C        0.9824701920    0.2224775865    0.1292569563
C        1.2078741355   -1.1612426746   -0.4232083438
C        0.1511540003   -1.9315356372   -0.2599592418
C       -1.3607733874    0.9174102665    0.3196551170
C       -0.5281539919    1.7561601155   -0.5116603855
N        0.6878249502    1.3676044774   -0.6964053495
H        1.9194644110    0.5472551141    0.6443876805
H        2.1861105165   -1.5252823242   -0.7254564371
H       -0.0503610344   -2.9996625779   -0.2968206815
H       -2.4168004990    1.1062465600    0.4926005376
H       -0.8907322895    2.6897412534   -0.9491016691
C       -0.6733536936   -0.1312265108    0.8387767989
H       -1.2727167788   -0.8700774277    1.3929869601
$end

$rem
method                b3lyp
basis                 6-31g(d)
unrestricted          true
symmetry              off
sym_ignore            true
incdft                false
incfock               0
scf_convergence       6
thresh                14
jobtype               sp
scf_guess             read
scf_algorithm         diis
max_scf_cycles        100
stability_analysis    true
max_cis_cycles        100
cis_n_roots           4
$end

--------------------------------------------------------------

             Standard Nuclear Orientation (Angstroms)
    I     Atom           X                Y                Z
 ----------------------------------------------------------------
    1      C       0.9824701920     0.2224775865     0.1292569563
    2      C       1.2078741355    -1.1612426746    -0.4232083438
    3      C       0.1511540003    -1.9315356372    -0.2599592418
    4      C      -1.3607733874     0.9174102665     0.3196551170
    5      C      -0.5281539919     1.7561601155    -0.5116603855
    6      N       0.6878249502     1.3676044774    -0.6964053495
    7      H       1.9194644110     0.5472551141     0.6443876805
    8      H       2.1861105165    -1.5252823242    -0.7254564371
    9      H      -0.0503610344    -2.9996625779    -0.2968206815
   10      H      -2.4168004990     1.1062465600     0.4926005376
   11      H      -0.8907322895     2.6897412534    -0.9491016691
   12      C      -0.6733536936    -0.1312265108     0.8387767989
   13      H      -1.2727167788    -0.8700774277     1.3929869601
 ----------------------------------------------------------------

    2    -286.7828412617      2.68E-09 Convergence criterion met
 Total energy in the final basis set = -286.78284126

         TDDFT/TDA Excitation Energies
 ---------------------------------------------------

 Excited state   1: excitation energy (eV) =    2.8335
 Total energy for state  1:                  -286.67871134 au
    <S**2>     :  1.0752
    Trans. Mom.:  0.0101 X  -0.1094 Y  -0.0117 Z
    Strength   :     0.0008471258
    S(  1) --> V(  1) amplitude =  0.5595 alpha
    D( 23) --> S(  1) amplitude =  0.2826 beta
    D( 24) --> S(  1) amplitude =  0.7274 beta

 Excited state   2: excitation energy (eV) =    2.9157
 Total energy for state  2:                  -286.67568998 au
    <S**2>     :  1.1013
    Trans. Mom.:  0.0818 X  -0.0294 Y   0.0194 Z
    Strength   :     0.0005668844
    S(  1) --> V(  1) amplitude =  0.4735 alpha
    D( 23) --> S(  1) amplitude =  0.5841 beta
    D( 24) --> S(  1) amplitude = -0.5776 beta

 Excited state   3: excitation energy (eV) =    3.6455
 Total energy for state  3:                  -286.64887225 au
    <S**2>     :  1.3916
    Trans. Mom.:  0.0690 X   0.0498 Y   0.0209 Z
    Strength   :     0.0006861044
    D( 24) --> V(  1) amplitude =  0.2520 alpha
    S(  1) --> V(  2) amplitude =  0.2650 alpha
    D( 22) --> S(  1) amplitude =  0.8012 beta
    D( 24) --> S(  1) amplitude = -0.1962 beta
    D( 24) --> V(  1) amplitude = -0.3467 beta

 Excited state   4: excitation energy (eV) =    3.8858
 Total energy for state  4:                  -286.64004090 au
    <S**2>     :  0.8752
    Trans. Mom.:  0.0742 X  -0.5963 Y  -0.1188 Z
    Strength   :     0.0357184043
    D( 24) --> V(  1) amplitude =  0.1743 alpha
    S(  1) --> V(  1) amplitude = -0.4392 alpha
    S(  1) --> V(  2) amplitude = -0.6976 alpha
    D( 23) --> S(  1) amplitude =  0.3982 beta
    D( 24) --> S(  1) amplitude =  0.2237 beta

 ---------------------------------------------------

                    Orbital Energies (a.u.)
 --------------------------------------------------------------

 Alpha MOs
 -- Occupied --
-14.330 -10.249 -10.227 -10.213 -10.208 -10.198 -10.190  -0.939
 -0.796  -0.764  -0.684  -0.608  -0.548  -0.523  -0.511  -0.474
 -0.423  -0.420  -0.392  -0.346  -0.317  -0.284  -0.277  -0.252
 -0.201

 Beta MOs
 -- Occupied --
-14.327 -10.247 -10.228 -10.216 -10.199 -10.194 -10.187  -0.934
 -0.786  -0.760  -0.677  -0.600  -0.540  -0.514  -0.508  -0.468
 -0.419  -0.413  -0.390  -0.341  -0.312  -0.278  -0.253  -0.247

          Ground-State Mulliken Net Atomic Charges

     Atom                 Charge (a.u.)    Spin (a.u.)
  --------------------------------------------------------
      1 C                    -0.046777       0.069875
      2 C                    -0.088670      -0.138059
      3 C                    -0.171902       0.858891
      4 C                    -0.128503       0.254682
      5 C                     0.071351      -0.083022
      6 N                    -0.359451       0.151623
      7 H                     0.164863       0.012106
      8 H                     0.147960       0.042384
      9 H                     0.152916       0.019407
     10 H                     0.140534      -0.012509
     11 H                     0.144174       0.004154
     12 C                    -0.190347      -0.195962
     13 H                     0.163852       0.016430
  --------------------------------------------------------
  Sum of atomic charges =     0.000000

                    Cartesian Multipole Moments
 -----------------------------------------------------------------
    Charge (ESU x 10^10)
                 0.0000
    Dipole Moment (Debye)
         X      -0.9002      Y      -0.9984      Z       0.9452
       Tot       1.6433
    Quadrupole Moments (Debye-Ang)
        XX     -36.9920     XY      -3.4921     YY     -37.7439
        XZ       0.4688     YZ       0.4284     ZZ     -43.4676

 Total job time:  99.45s(wall), 87.61s(cpu)
        *  Thank you very much for using Q-Chem.  Have a nice day.  *
