 Q-Chem 5.0, Q-Chem, Inc., Pleasanton, CA (2017)
 Q-Chem 5.0.2 for Intel X86 EM64T Linux

User input:
--------------------------------------------------------------
$molecule
0 2
C        0.9824701920    0.2224775865    0.1292569563
C        1.2078741355   -1.1612426746   -0.4232083438
C        0.1511540003   -1.9315356372   -0.2599592418
C       -1.3607733874    0.9174102665    0.3196551170
C       -0.5281539919    1.7561601155   -0.5116603855
N        0.6878249502    1.3676044774   -0.6964053495
H        1.9194644110    0.5472551141    0.6443876805
H        2.1861105165   -1.5252823242   -0.7254564371
H       -0.0503610344   -2.9996625779   -0.2968206815
H       -2.4168004990    1.1062465600    0.4926005376
H       -0.8907322895    2.6897412534   -0.9491016691
C       -0.6733536936   -0.1312265108    0.8387767989
H       -1.2727167788   -0.8700774277    1.3929869601
$end

$rem
method                b3lyp
basis                 6-31g(d)
unrestricted          true
symmetry              off
sym_ignore            true
incdft                false
incfock               0
scf_convergence       8
thresh                14
jobtype               freq
scf_guess             read
scf_algorithm         diis
max_scf_cycles        100
$end

--------------------------------------------------------------

             Standard Nuclear Orientation (Angstroms)
    I     Atom           X                Y                Z
 ----------------------------------------------------------------
    1      C       0.9824701920     0.2224775865     0.1292569563
    2      C       1.2078741355    -1.1612426746    -0.4232083438
    3      C       0.1511540003    -1.9315356372    -0.2599592418
    4      C      -1.3607733874     0.9174102665     0.3196551170
    5      C      -0.5281539919     1.7561601155    -0.5116603855
    6      N       0.6878249502     1.3676044774    -0.6964053495
    7      H       1.9194644110     0.5472551141     0.6443876805
    8      H       2.1861105165    -1.5252823242    -0.7254564371
    9      H      -0.0503610344    -2.9996625779    -0.2968206815
   10      H      -2.4168004990     1.1062465600     0.4926005376
   11      H      -0.8907322895     2.6897412534    -0.9491016691
   12      C      -0.6733536936    -0.1312265108     0.8387767989
   13      H      -1.2727167788    -0.8700774277     1.3929869601
 ----------------------------------------------------------------

    2    -286.7828412706      5.46E-09 Convergence criterion met
 Total energy in the final basis set = -286.78284127

                    Orbital Energies (a.u.)
 --------------------------------------------------------------

 Alpha MOs
 -- Occupied --
-14.330 -10.249 -10.227 -10.213 -10.208 -10.198 -10.190  -0.939
 -0.796  -0.764  -0.684  -0.608  -0.548  -0.523  -0.511  -0.474
 -0.423  -0.420  -0.392  -0.346  -0.317  -0.284  -0.277  -0.252
 -0.201

 Beta MOs
 -- Occupied --
-14.327 -10.247 -10.228 -10.216 -10.199 -10.194 -10.187  -0.934
 -0.786  -0.760  -0.677  -0.600  -0.540  -0.514  -0.508  -0.468
 -0.419  -0.413  -0.390  -0.341  -0.312  -0.278  -0.253  -0.247

          Ground-State Mulliken Net Atomic Charges

     Atom                 Charge (a.u.)    Spin (a.u.)
  --------------------------------------------------------
      1 C                    -0.046777       0.069875
      2 C                    -0.088670      -0.138055
      3 C                    -0.171902       0.858887
      4 C                    -0.128503       0.254684
      5 C                     0.071351      -0.083024
      6 N                    -0.359451       0.151626
      7 H                     0.164863       0.012106
      8 H                     0.147960       0.042383
      9 H                     0.152916       0.019407
     10 H                     0.140534      -0.012509
     11 H                     0.144174       0.004154
     12 C                    -0.190347      -0.195964
     13 H                     0.163852       0.016430
  --------------------------------------------------------
  Sum of atomic charges =     0.000000

                    Cartesian Multipole Moments
 -----------------------------------------------------------------
    Charge (ESU x 10^10)
                 0.0000
    Dipole Moment (Debye)
         X      -0.9002      Y      -0.9984      Z       0.9452
       Tot       1.6433
    Quadrupole Moments (Debye-Ang)
        XX     -36.9920     XY      -3.4921     YY     -37.7439
        XZ       0.4688     YZ       0.4284     ZZ     -43.4676

 Frequency:      -433.95                  22.77                 216.42
 Force Cnst:      0.5424                 0.0011                 0.1058
 Red. Mass:       4.8885                 3.5436                 3.8348
 IR Intens:        4.688                 15.216                  2.713
 Frequency:       250.76                 365.97                 566.46
 Force Cnst:      0.1223                 0.2323                 0.4408
 Red. Mass:       3.3002                 2.9445                 2.3318
 IR Intens:       18.515                  2.590                 14.336
 Frequency:       593.85                 651.87                 735.45
 Force Cnst:      0.6961                 0.4827                 0.4370
 Red. Mass:       3.3503                 1.9279                 1.3713
 IR Intens:        5.126                 25.837                 24.207
 Frequency:       757.98                 827.31                 837.15
 Force Cnst:      0.7426                 0.9347                 0.8036
 Red. Mass:       2.1937                 2.3178                 1.9461
 IR Intens:       44.625                 15.222                 26.658
 Frequency:       886.28                 894.97                 953.12
 Force Cnst:      0.7150                 0.6516                 1.1783
 Red. Mass:       1.5450                 1.3807                 2.2015
 IR Intens:       16.247                 13.443                 21.804
 Frequency:       990.22                1036.73                1067.20
 Force Cnst:      0.8922                 1.2873                 1.1514
 Red. Mass:       1.5443                 2.0328                 1.7159
 IR Intens:       11.278                  1.956                 20.986
 Frequency:      1105.54                1187.98                1225.05
 Force Cnst:      0.8490                 1.3018                 1.3974
 Red. Mass:       1.1790                 1.5656                 1.5803
 IR Intens:        0.475                  2.465                 47.446
 Frequency:      1296.30                1325.11                1385.62
 Force Cnst:      1.4756                 1.4008                 1.8634
 Red. Mass:       1.4904                 1.3540                 1.6472
 IR Intens:        6.705                  5.582                 14.318
 Frequency:      1480.51                1645.13                1674.99
 Force Cnst:      7.1168                 9.4381                11.0151
 Red. Mass:       5.5107                 5.9189                 6.6637
 IR Intens:       19.313                 11.444                  1.633
 Frequency:      2892.83                3071.33                3144.93
 Force Cnst:      5.3292                 6.0506                 6.3612
 Red. Mass:       1.0809                 1.0887                 1.0916
 IR Intens:       13.342                  1.259                 40.109
 Frequency:      3173.27                3208.13                3209.65
 Force Cnst:      6.4102                 6.6491                 6.7332
 Red. Mass:       1.0805                 1.0965                 1.1093
 IR Intens:       18.769                 19.043                  6.100

 STANDARD THERMODYNAMIC QUANTITIES AT   298.15 K  AND     1.00 ATM

   This Molecule has  1 Imaginary Frequencies
   Zero point vibrational energy:       61.015 kcal/mol

   Atom    1 Element C  Has Mass   12.00000
   Atom    2 Element C  Has Mass   12.00000
   Atom    3 Element C  Has Mass   12.00000
   Atom    4 Element C  Has Mass   12.00000
   Atom    5 Element C  Has Mass   12.00000
   Atom    6 Element N  Has Mass   14.00307
   Atom    7 Element H  Has Mass    1.00783
   Atom    8 Element H  Has Mass    1.00783
   Atom    9 Element H  Has Mass    1.00783
   Atom   10 Element H  Has Mass    1.00783
   Atom   11 Element H  Has Mass    1.00783
   Atom   12 Element C  Has Mass   12.00000
   Atom   13 Element H  Has Mass    1.00783
   Molecular Mass:    92.050050 amu
   Principal axes and moments of inertia in amu*Bohr^2:
                             1           2           3
    Eigenvalues --      335.45841   659.01638   887.29165
          X              -0.39261     0.83501     0.38550
          Y               0.91970     0.35731     0.16270
          Z               0.00189    -0.41843     0.90825
   Rotational Symmetry Number is   1
   The Molecule is an Asymmetric Top
   Translational Enthalpy:        0.889 kcal/mol
   Rotational Enthalpy:           0.889 kcal/mol
   Vibrational Enthalpy:         63.159 kcal/mol
   gas constant (RT):             0.592 kcal/mol
   Translational Entropy:        39.471  cal/mol.K
   Rotational Entropy:           26.775  cal/mol.K
   Vibrational Entropy:          14.294  cal/mol.K

   Total Enthalpy:               65.529 kcal/mol
   Total Entropy:                80.540  cal/mol.K

 Total job time:  265.19s(wall), 254.01s(cpu)
        *  Thank you very much for using Q-Chem.  Have a nice day.  *
