 Q-Chem 5.0, Q-Chem, Inc., Pleasanton, CA (2017)
 Q-Chem 5.0.2 for Intel X86 EM64T Linux

User input:
--------------------------------------------------------------
$molecule
0 2
C        1.2424488758    0.3285259729    0.1575187148
C        0.6190515943   -1.1148988496   -0.1206762406
C       -0.7309206360   -1.0002894522   -0.6569172640
C       -1.0521277764    0.1899608083    0.2443084245
C       -0.5326811183    1.4039059485   -0.5165028819
N        0.7470660897    1.4475081598   -0.6047495514
H        2.2979472879    0.3233810197    0.4108180784
H        1.2994698631   -1.9592438129   -0.1712622510
H       -1.1770907404   -1.3193984487   -1.5961661522
H       -2.0409918353    0.2600128364    0.7018722171
H       -1.1682313624    2.1008702017   -1.0605932589
C        0.2142271837   -0.2308103634    1.0736003463
H        0.2818325743   -0.4295240206    2.1387498190
$end

$rem
method                b3lyp
basis                 6-31g(d)
unrestricted          true
symmetry              off
sym_ignore            true
incdft                false
incfock               0
scf_convergence       8
thresh                14
jobtype               opt
scf_guess             read
scf_algorithm         diis
max_scf_cycles        100
geom_opt_tol_gradient 600
geom_opt_tol_displacement 2400
geom_opt_tol_energy   200
geom_opt_max_cycles   100
$end

--------------------------------------------------------------

    2    -286.8383128750      3.32E-09 Convergence criterion met
 Total energy in the final basis set = -286.83831288
   11    -286.8383166369      2.15E-09 Convergence criterion met
 Total energy in the final basis set = -286.83831664

             Standard Nuclear Orientation (Angstroms)
    I     Atom           X                Y                Z
 ----------------------------------------------------------------
    1      C       1.2423264723     0.3279808765     0.1561017307
    2      C       0.6186422874    -1.1157473033    -0.1208938196
    3      C      -0.7307666271    -1.0009011111    -0.6570897474
    4      C      -1.0530773302     0.1892093302     0.2439834951
    5      C      -0.5328088835     1.4033230748    -0.5163215207
    6      N       0.7467015753     1.4470519379    -0.6052115823
    7      H       2.2970017933     0.3230115627     0.4114471641
    8      H       1.2983727153    -1.9607555662    -0.1692114385
    9      H      -1.1746570221    -1.3201605381    -1.5970725080
   10      H      -2.0432174997     0.2599230334     0.6997905237
   11      H      -1.1681903935     2.1036779042    -1.0561918554
   12      C       0.2142353935    -0.2298896529     1.0725573630
   13      H       0.2854375190    -0.4267235482     2.1381121955
 ----------------------------------------------------------------

    9    -286.8383176644      9.48E-09 Convergence criterion met
 Total energy in the final basis set = -286.83831766
 Final energy is   -286.838317664355
 **  OPTIMIZATION CONVERGED  **

                    Orbital Energies (a.u.)
 --------------------------------------------------------------

 Alpha MOs
 -- Occupied --
-14.320 -10.224 -10.220 -10.210 -10.209 -10.208 -10.206  -0.968
 -0.856  -0.749  -0.664  -0.606  -0.571  -0.535  -0.517  -0.467
 -0.439  -0.405  -0.400  -0.356  -0.336  -0.298  -0.274  -0.256
 -0.182

 Beta MOs
 -- Occupied --
-14.319 -10.222 -10.219 -10.211 -10.209 -10.207 -10.193  -0.964
 -0.850  -0.741  -0.652  -0.601  -0.567  -0.528  -0.511  -0.461
 -0.434  -0.403  -0.394  -0.348  -0.332  -0.291  -0.262  -0.251

          Ground-State Mulliken Net Atomic Charges

     Atom                 Charge (a.u.)    Spin (a.u.)
  --------------------------------------------------------
      1 C                    -0.019109       0.097252
      2 C                    -0.163263      -0.095989
      3 C                    -0.066622       0.888023
      4 C                    -0.258078      -0.065681
      5 C                     0.088568       0.047232
      6 N                    -0.342222       0.039192
      7 H                     0.151425       0.002835
      8 H                     0.147222       0.005287
      9 H                     0.136240      -0.019235
     10 H                     0.142872       0.022729
     11 H                     0.143031       0.001362
     12 C                    -0.108123       0.077774
     13 H                     0.148059      -0.000782
  --------------------------------------------------------
  Sum of atomic charges =    -0.000000

                    Cartesian Multipole Moments
 -----------------------------------------------------------------
    Charge (ESU x 10^10)
                -0.0000
    Dipole Moment (Debye)
         X      -1.0504      Y      -1.3969      Z       1.0705
       Tot       2.0495
    Quadrupole Moments (Debye-Ang)
        XX     -38.1234     XY      -4.4412     YY     -43.2639
        XZ       2.6354     YZ       1.3556     ZZ     -39.9358

 Total job time:  28.59s(wall), 81.91s(cpu)
        *  Thank you very much for using Q-Chem.  Have a nice day.  *
