 Q-Chem 5.0, Q-Chem, Inc., Pleasanton, CA (2017)
 Q-Chem 5.0.2 for Intel X86 EM64T Linux

User input:
--------------------------------------------------------------
$molecule
0 2
C        1.6499860692    0.3921450031   -1.9373029873
C        0.8883821372   -0.9843308250   -1.6647543058
C       -0.6771906625   -0.7525817476   -2.0425011588
C       -1.2583215555    0.3572946005   -0.6028148607
C       -0.6299951776    0.7167420613   -2.0415013992
N        0.8475028357    1.2745899992   -2.2230316107
H        2.7233729416    0.7120233212   -1.9077471139
H        1.3168831144   -1.9463061043   -1.4686198327
H       -0.9317825138   -1.5042254954   -2.7976980982
H       -2.3200092242    0.5660513938   -0.4160906475
H       -1.4572192687    1.1646398115   -2.5339712187
C       -0.8450239148   -1.0057903764   -0.5481204747
H       -1.0199127226   -2.1158395263   -0.1281450746
$end

$rem
method                b3lyp
basis                 6-31g(d)
unrestricted          true
symmetry              off
sym_ignore            true
incdft                false
incfock               0
scf_convergence       8
thresh                14
jobtype               opt
scf_guess             read
scf_algorithm         diis
max_scf_cycles        100
geom_opt_tol_gradient 600
geom_opt_tol_displacement 2400
geom_opt_tol_energy   200
geom_opt_max_cycles   100
$end

--------------------------------------------------------------

    2    -286.7149982513      1.87E-09 Convergence criterion met
 Total energy in the final basis set = -286.71499825
   17    -286.7589547905      5.06E-09 Convergence criterion met
 Total energy in the final basis set = -286.75895479
   16    -286.7897989398      6.43E-09 Convergence criterion met
 Total energy in the final basis set = -286.78979894
   15    -286.8087654079      8.74E-09 Convergence criterion met
 Total energy in the final basis set = -286.80876541
   15    -286.8206569689      5.12E-09 Convergence criterion met
 Total energy in the final basis set = -286.82065697
   13    -286.8283037068      9.89E-09 Convergence criterion met
 Total energy in the final basis set = -286.82830371
   13    -286.8329865389      7.18E-09 Convergence criterion met
 Total energy in the final basis set = -286.83298654
   12    -286.8354742668      8.78E-09 Convergence criterion met
   11    -286.8364901340      8.40E-09 Convergence criterion met
 Total energy in the final basis set = -286.83649013
   10    -286.8364935466      3.91E-09 Convergence criterion met
 Total energy in the final basis set = -286.83649355
    9    -286.8364984739      6.55E-09 Convergence criterion met
 Total energy in the final basis set = -286.83649847
   11    -286.8365050526      3.32E-09 Convergence criterion met
 Total energy in the final basis set = -286.83650505
   10    -286.8365075338      2.48E-09 Convergence criterion met
 Total energy in the final basis set = -286.83650753
   10    -286.8365105536      6.50E-09 Convergence criterion met
 Total energy in the final basis set = -286.83651055

             Standard Nuclear Orientation (Angstroms)
    I     Atom           X                Y                Z
 ----------------------------------------------------------------
    1      C       1.4123219293     0.3324063148    -1.7645252730
    2      C       0.7546041460    -0.9924022440    -1.5660751278
    3      C      -0.5679133799    -0.8883999171    -2.2521792075
    4      C      -1.1207972733     0.3898492858    -0.6491044807
    5      C      -0.7425207643     0.6717567191    -2.1088033174
    6      N       0.6150452807     1.2719972709    -2.1123219303
    7      H       2.4734294924     0.5158832407    -1.5989215278
    8      H       1.3096826931    -1.9254291447    -1.5516123809
    9      H      -0.9959753706    -1.5693956863    -2.9821440719
   10      H      -2.0660808244     0.6493747880    -0.1864950824
   11      H      -1.4414460145     1.2137873446    -2.7454757164
   12      C      -0.5634672479    -0.9735530457    -0.7180383283
   13      H      -0.7802106082    -1.8214628105    -0.0766023383
 ----------------------------------------------------------------

    9    -286.8365117427      9.03E-09 Convergence criterion met
 Total energy in the final basis set = -286.83651174
 Final energy is   -286.836511742748
 **  OPTIMIZATION CONVERGED  **

                    Orbital Energies (a.u.)
 --------------------------------------------------------------

 Alpha MOs
 -- Occupied --
-14.317 -10.220 -10.220 -10.215 -10.212 -10.211 -10.194  -0.964
 -0.858  -0.746  -0.657  -0.608  -0.574  -0.540  -0.512  -0.463
 -0.429  -0.412  -0.388  -0.366  -0.328  -0.315  -0.266  -0.256
 -0.174

 Beta MOs
 -- Occupied --
-14.317 -10.221 -10.220 -10.215 -10.211 -10.210 -10.181  -0.961
 -0.854  -0.736  -0.646  -0.602  -0.571  -0.538  -0.501  -0.461
 -0.425  -0.406  -0.384  -0.362  -0.317  -0.303  -0.263  -0.254

          Ground-State Mulliken Net Atomic Charges

     Atom                 Charge (a.u.)    Spin (a.u.)
  --------------------------------------------------------
      1 C                     0.096304       0.007077
      2 C                    -0.192175       0.037626
      3 C                    -0.106938       0.107810
      4 C                    -0.071187       0.952613
      5 C                    -0.100014      -0.043946
      6 N                    -0.337290       0.012684
      7 H                     0.143712       0.003972
      8 H                     0.148613       0.001465
      9 H                     0.149519       0.008407
     10 H                     0.139625      -0.039821
     11 H                     0.141879       0.005597
     12 C                    -0.161600      -0.053923
     13 H                     0.149551       0.000439
  --------------------------------------------------------
  Sum of atomic charges =     0.000000

                    Cartesian Multipole Moments
 -----------------------------------------------------------------
    Charge (ESU x 10^10)
                 0.0000
    Dipole Moment (Debye)
         X      -0.6514      Y      -2.7519      Z       0.1080
       Tot       2.8300
    Quadrupole Moments (Debye-Ang)
        XX     -36.6193     XY      -2.1086     YY     -42.1675
        XZ       1.8418     YZ       4.7719     ZZ     -41.3087

 Total job time:  632.29s(wall), 834.45s(cpu)
        *  Thank you very much for using Q-Chem.  Have a nice day.  *
