 Q-Chem 5.0, Q-Chem, Inc., Pleasanton, CA (2017)
 Q-Chem 5.0.2 for Intel X86 EM64T Linux

User input:
--------------------------------------------------------------
$molecule
0 2
C        1.5544248778    0.0938375700    0.1670720066
C        1.3562887175   -1.1013614845    1.0294028410
C        0.2277083839   -1.7217537314    1.3257774779
C       -1.6757192280    1.6059890312   -0.6392433728
C       -0.6859089170    0.4789258009   -0.4688471290
N        0.7040383159    0.7933185729   -0.4874789981
H        2.5958187031    0.4139758451    0.0889761868
H        2.2912922283   -1.4871489963    1.4555579624
H       -0.0462181725   -2.5797793952    1.9272082457
H       -2.1135536120    2.4648896085   -0.1548433297
H       -0.9659441616   -0.3983255422    0.1333582161
C       -1.5179894449    0.8453238443   -1.6743660847
H       -1.7242376900    0.5921088771   -2.7025740218
$end

$rem
method                b3lyp
basis                 6-31+g(d,p)
unrestricted          true
symmetry              off
sym_ignore            true
incdft                false
incfock               0
scf_convergence       6
thresh                14
jobtype               sp
scf_guess             read
scf_algorithm         diis
max_scf_cycles        100
stability_analysis    true
max_cis_cycles        100
cis_n_roots           4
$end

--------------------------------------------------------------

             Standard Nuclear Orientation (Angstroms)
    I     Atom           X                Y                Z
 ----------------------------------------------------------------
    1      C       1.5544248778     0.0938375700     0.1670720066
    2      C       1.3562887175    -1.1013614845     1.0294028410
    3      C       0.2277083839    -1.7217537314     1.3257774779
    4      C      -1.6757192280     1.6059890312    -0.6392433728
    5      C      -0.6859089170     0.4789258009    -0.4688471290
    6      N       0.7040383159     0.7933185729    -0.4874789981
    7      H       2.5958187031     0.4139758451     0.0889761868
    8      H       2.2912922283    -1.4871489963     1.4555579624
    9      H      -0.0462181725    -2.5797793952     1.9272082457
   10      H      -2.1135536120     2.4648896085    -0.1548433297
   11      H      -0.9659441616    -0.3983255422     0.1333582161
   12      C      -1.5179894449     0.8453238443    -1.6743660847
   13      H      -1.7242376900     0.5921088771    -2.7025740218
 ----------------------------------------------------------------

    2    -286.7950241676      4.46E-09 Convergence criterion met
 Total energy in the final basis set = -286.79502417

         TDDFT/TDA Excitation Energies
 ---------------------------------------------------

 Excited state   1: excitation energy (eV) =    2.6532
 Total energy for state  1:                  -286.69752240 au
    <S**2>     :  0.8211
    Trans. Mom.: -0.0130 X   0.0695 Y   0.1032 Z
    Strength   :     0.0010175100
    S(  1) --> V(  1) amplitude =  0.5355 alpha
    D( 21) --> S(  1) amplitude = -0.2232 beta
    D( 24) --> S(  1) amplitude =  0.7997 beta

 Excited state   2: excitation energy (eV) =    2.9093
 Total energy for state  2:                  -286.68810869 au
    <S**2>     :  1.1843
    Trans. Mom.:  0.0076 X  -0.0319 Y  -0.0479 Z
    Strength   :     0.0002401915
    S(  1) --> V(  1) amplitude =  0.8174 alpha
    D( 24) --> S(  1) amplitude = -0.5257 beta

 Excited state   3: excitation energy (eV) =    3.2099
 Total energy for state  3:                  -286.67706069 au
    <S**2>     :  2.5934
    Trans. Mom.:  0.0454 X   0.0960 Y  -0.0642 Z
    Strength   :     0.0012112734
    D( 24) --> V(  1) amplitude =  0.7098 alpha
    D( 23) --> S(  1) amplitude =  0.2566 beta
    D( 24) --> V(  1) amplitude =  0.5992 beta

 Excited state   4: excitation energy (eV) =    3.4203
 Total energy for state  4:                  -286.66932892 au
    <S**2>     :  0.9322
    Trans. Mom.:  0.1028 X   0.3609 Y  -0.2528 Z
    Strength   :     0.0171535858
    D( 23) --> S(  1) amplitude =  0.9136 beta
    D( 24) --> V(  1) amplitude = -0.3839 beta

 ---------------------------------------------------

                    Orbital Energies (a.u.)
 --------------------------------------------------------------

 Alpha MOs
 -- Occupied --
-14.337 -10.237 -10.237 -10.228 -10.219 -10.218 -10.215  -0.938
 -0.870  -0.786  -0.671  -0.600  -0.578  -0.541  -0.518  -0.496
 -0.460  -0.428  -0.385  -0.362  -0.313  -0.288  -0.282  -0.256
 -0.223

 Beta MOs
 -- Occupied --
-14.337 -10.236 -10.236 -10.219 -10.218 -10.216 -10.213  -0.937
 -0.869  -0.773  -0.663  -0.590  -0.578  -0.536  -0.511  -0.489
 -0.448  -0.423  -0.386  -0.361  -0.310  -0.286  -0.256  -0.250

          Ground-State Mulliken Net Atomic Charges

     Atom                 Charge (a.u.)    Spin (a.u.)
  --------------------------------------------------------
      1 C                    -0.140180       0.046029
      2 C                     0.011977      -0.216044
      3 C                    -0.183579       1.042672
      4 C                    -0.179257      -0.004506
      5 C                    -0.080832       0.068004
      6 N                    -0.082879      -0.010305
      7 H                     0.120199       0.003178
      8 H                     0.141554       0.082427
      9 H                     0.152704       0.011055
     10 H                     0.142697      -0.001175
     11 H                     0.132672      -0.016089
     12 C                    -0.177829      -0.004026
     13 H                     0.142753      -0.001219
  --------------------------------------------------------
  Sum of atomic charges =    -0.000000

                    Cartesian Multipole Moments
 -----------------------------------------------------------------
    Charge (ESU x 10^10)
                 0.0000
    Dipole Moment (Debye)
         X      -0.5287      Y      -1.0891      Z       0.7335
       Tot       1.4156
    Quadrupole Moments (Debye-Ang)
        XX     -38.0273     XY      -3.6976     YY     -40.4974
        XZ       3.2137     YZ      -1.0098     ZZ     -39.8119

 Total job time:  191.24s(wall), 178.21s(cpu)
        *  Thank you very much for using Q-Chem.  Have a nice day.  *
