 Q-Chem 5.0, Q-Chem, Inc., Pleasanton, CA (2017)
 Q-Chem 5.0.2 for Intel X86 EM64T Linux

User input:
--------------------------------------------------------------
$molecule
0 2
C        1.3404067529   -0.0636233931    0.2520628170
C        0.9381022882   -1.2318494895    1.0655093189
C        1.8044615883   -1.9719986745    1.7341278208
C       -1.6299929233    1.8153932983   -0.7892016166
C       -0.8060616252    0.5734284903   -0.5485054482
N        0.6115734352    0.7267019819   -0.4472275178
H        2.4124753268    0.1430964329    0.2571820906
H       -0.1224959735   -1.4947029187    1.1166765850
H        1.7908432207   -2.8407394873    2.3787103871
H       -1.9987369731    2.7219374189   -0.3350357312
H       -1.2603754149   -0.2563342591    0.0007045199
C       -1.4731971605    1.0460023314   -1.8179538698
H       -1.6070025416    0.8326882684   -2.8670493555
$end

$rem
method                b3lyp
basis                 6-31+g(d,p)
unrestricted          true
symmetry              off
sym_ignore            true
incdft                false
incfock               0
scf_convergence       8
thresh                14
jobtype               sp
scf_guess             read
scf_algorithm         diis
max_scf_cycles        100
scf_final_print       1
$end

--------------------------------------------------------------

             Standard Nuclear Orientation (Angstroms)
    I     Atom           X                Y                Z
 ----------------------------------------------------------------
    1      C       1.3404067529    -0.0636233931     0.2520628170
    2      C       0.9381022882    -1.2318494895     1.0655093189
    3      C       1.8044615883    -1.9719986745     1.7341278208
    4      C      -1.6299929233     1.8153932983    -0.7892016166
    5      C      -0.8060616252     0.5734284903    -0.5485054482
    6      N       0.6115734352     0.7267019819    -0.4472275178
    7      H       2.4124753268     0.1430964329     0.2571820906
    8      H      -0.1224959735    -1.4947029187     1.1166765850
    9      H       1.7908432207    -2.8407394873     2.3787103871
   10      H      -1.9987369731     2.7219374189    -0.3350357312
   11      H      -1.2603754149    -0.2563342591     0.0007045199
   12      C      -1.4731971605     1.0460023314    -1.8179538698
   13      H      -1.6070025416     0.8326882684    -2.8670493555
 ----------------------------------------------------------------

    2    -286.7960234342      1.94E-09 Convergence criterion met
 Total energy in the final basis set = -286.79602343

                    Orbital Energies (a.u.)
 --------------------------------------------------------------

 Alpha MOs
 -- Occupied --
-14.335 -10.241 -10.237 -10.236 -10.218 -10.218 -10.217  -0.936
 -0.870  -0.795  -0.661  -0.607  -0.578  -0.548  -0.513  -0.506
 -0.467  -0.428  -0.385  -0.362  -0.320  -0.287  -0.271  -0.255
 -0.240

 Beta MOs
 -- Occupied --
-14.336 -10.241 -10.236 -10.221 -10.219 -10.218 -10.217  -0.937
 -0.869  -0.780  -0.655  -0.593  -0.578  -0.543  -0.509  -0.500
 -0.459  -0.421  -0.386  -0.362  -0.316  -0.287  -0.253  -0.250

          Ground-State Mulliken Net Atomic Charges

     Atom                 Charge (a.u.)    Spin (a.u.)
  --------------------------------------------------------
      1 C                    -0.257696       0.066407
      2 C                     0.302054      -0.402853
      3 C                    -0.400777       1.296851
      4 C                    -0.162864      -0.004476
      5 C                    -0.015937       0.003867
      6 N                    -0.116224      -0.037909
      7 H                     0.129139       0.003766
      8 H                     0.137154       0.073628
      9 H                     0.160063       0.007449
     10 H                     0.140921      -0.000531
     11 H                     0.103627      -0.001212
     12 C                    -0.160448      -0.004452
     13 H                     0.140986      -0.000535
  --------------------------------------------------------
  Sum of atomic charges =    -0.000000

                    Cartesian Multipole Moments
 -----------------------------------------------------------------
    Charge (ESU x 10^10)
                -0.0000
    Dipole Moment (Debye)
         X      -1.5853      Y      -1.2412      Z       0.6914
       Tot       2.1287
    Quadrupole Moments (Debye-Ang)
        XX     -41.9262     XY      -3.1032     YY     -39.1544
        XZ       2.1645     YZ      -1.9215     ZZ     -39.3051

 Total job time:  4.53s(wall), 10.77s(cpu)
        *  Thank you very much for using Q-Chem.  Have a nice day.  *
