 Q-Chem 5.0, Q-Chem, Inc., Pleasanton, CA (2017)
 Q-Chem 5.0.2 for Intel X86 EM64T Linux

User input:
--------------------------------------------------------------
$molecule
0 2
C        1.5258961124    0.2824471965    0.6702683021
C        1.0972415062   -1.0098392889    0.4323167911
C       -0.1574804803   -1.4433073095   -0.1273746205
C       -1.2393572906    0.7884358064   -0.5030886509
C       -0.2742916996    1.6674858601   -0.0482145404
N        0.9612765364    1.4976486453    0.4779372259
H        2.5255110387    0.3610345247    1.1034228404
H        1.7990316334   -1.7951751195    0.7027375272
H       -0.2859150848   -2.5192998038   -0.2266366739
H       -2.1517230449    1.2453558637   -0.8788841434
H       -0.5454201615    2.7230961082   -0.1207795702
C       -1.1866646495   -0.6508610922   -0.5401971568
H       -2.0681044156   -1.1470213914   -0.9415073311
****
C        1.3460752019    0.0090529781    0.2030165238
C        1.0889605942   -1.3388868179    0.7527585083
C        2.0470136290   -2.1072040908    1.2363412756
C       -1.8103450463    1.7868378699   -0.3533290186
C       -0.8757296071    0.6024435227   -0.3877015112
N        0.5267045036    0.8598137233   -0.2924616343
H        2.3968421029    0.3088491616    0.2297461358
H        0.0605996697   -1.7131179375    0.7552131938
H        2.1313597127   -3.0917784399    1.6786931116
H       -2.2366731386    2.5482851467    0.2825234912
H       -1.2385735633   -0.3568763509   -0.0029961810
C       -1.6345510995    1.2539991433   -1.5175681168
H       -1.8016829592    1.2385820917   -2.5842357784
$end

$rem
method                b3lyp
basis                 6-31g(d)
unrestricted          true
symmetry              off
sym_ignore            true
incdft                false
incfock               0
scf_convergence       8
thresh                14
jobtype               fsm
scf_algorithm         rca_diis
thresh_rca_switch     4
max_scf_cycles        300
fsm_nnode             21
fsm_ngrad             6
fsm_mode              2
fsm_opt_mode          2
$end

--------------------------------------------------------------

   16    -286.9243388365      8.86E-09 Convergence criterion met
 Total energy in the final basis set = -286.92433884
   20    -286.7710663250      6.63E-09 Convergence criterion met
 Total energy in the final basis set = -286.77106633
   25    -286.8848851739      5.27E-09 Convergence criterion met
 Total energy in the final basis set = -286.88488517
   23    -286.8983756021      5.27E-09 Convergence criterion met
 Total energy in the final basis set = -286.89837560
   19    -286.7677105262      6.82E-09 Convergence criterion met
 Total energy in the final basis set = -286.76771053
   20    -286.7682891130      5.05E-09 Convergence criterion met
 Total energy in the final basis set = -286.76828911
   20    -286.8556972262      8.61E-09 Convergence criterion met
 Total energy in the final basis set = -286.85569723
   20    -286.8678512600      6.02E-09 Convergence criterion met
 Total energy in the final basis set = -286.68976023
   25    -286.6898472669      9.03E-09 Convergence criterion met
 Total energy in the final basis set = -286.68984727
   25    -286.6897576146      9.43E-09 Convergence criterion met
 Total energy in the final basis set = -286.68975761
   25    -286.6898500340      8.98E-09 Convergence criterion met
 Total energy in the final basis set = -286.68985003
   25    -286.6897545937      9.45E-09 Convergence criterion met
 Total energy in the final basis set = -286.68975459
   25    -286.6898532686      8.94E-09 Convergence criterion met
 Total energy in the final basis set = -286.68985327
   25    -286.6897531258      9.44E-09 Convergence criterion met
 Total energy in the final basis set = -286.68975313
   25    -286.6898550215      8.93E-09 Convergence criterion met
 Total energy in the final basis set = -286.68985502

                    Orbital Energies (a.u.)
 --------------------------------------------------------------

 Alpha MOs
 -- Occupied --
-14.371 -10.265 -10.261 -10.214 -10.203 -10.188 -10.168  -0.963
 -0.808  -0.776  -0.698  -0.615  -0.566  -0.515  -0.500  -0.476
 -0.472  -0.453  -0.390  -0.326  -0.317  -0.282  -0.262  -0.243
 -0.179

 Beta MOs
 -- Occupied --
-14.371 -10.264 -10.263 -10.205 -10.199 -10.188 -10.165  -0.965
 -0.806  -0.766  -0.694  -0.605  -0.560  -0.511  -0.498  -0.474
 -0.463  -0.444  -0.388  -0.326  -0.317  -0.274  -0.260  -0.163

          Ground-State Mulliken Net Atomic Charges

     Atom                 Charge (a.u.)    Spin (a.u.)
  --------------------------------------------------------
      1 C                     0.075453       0.024138
      2 C                    -0.186000      -0.160610
      3 C                    -0.148221       0.972356
      4 C                    -0.142602       0.015816
      5 C                     0.038509      -0.160076
      6 N                    -0.252155      -0.022046
      7 H                     0.168751       0.000316
      8 H                     0.165615       0.078675
      9 H                     0.156585       0.013598
     10 H                     0.115716       0.002883
     11 H                     0.157353       0.008775
     12 C                    -0.270732       0.211876
     13 H                     0.121728       0.014300
  --------------------------------------------------------
  Sum of atomic charges =    -0.000000

                    Cartesian Multipole Moments
 -----------------------------------------------------------------
    Charge (ESU x 10^10)
                 0.0000
    Dipole Moment (Debye)
         X       0.3412      Y      -0.1325      Z       2.6386
       Tot       2.6639
    Quadrupole Moments (Debye-Ang)
        XX     -38.1659     XY      -1.5107     YY     -39.1607
        XZ       1.1341     YZ      -0.1918     ZZ     -40.8667

             Standard Nuclear Orientation (Angstroms)
    I     Atom           X                Y                Z
 ----------------------------------------------------------------
    1      C       1.5435678408     0.2246571329     0.2984686107
    2      C       1.1139254691    -1.1471046782     0.6879482707
    3      C       0.8726693082    -2.1610249913    -0.1093211630
    4      C      -1.5401636358     1.2768631253    -0.8463533246
    5      C      -0.5608147784     1.3685686564     0.1968716833
    6      N       0.7813626290     1.2118635802     0.0950800573
    7      H       2.6231269576     0.3947805127     0.2013452330
    8      H       0.9647598714    -1.2572108845     1.7742782439
    9      H       0.6061246096    -3.1898798147     0.1158775877
   10      H      -2.3782757265     1.9813035230    -0.9095102924
   11      H      -0.8284293305     1.7462170154     1.1937572012
   12      C      -1.3257921628     0.0228694814    -1.2839254496
   13      H      -2.1117008707    -0.6144190614    -1.7057997420
 ----------------------------------------------------------------

 Total job time:  2042.73s(wall), 6344.50s(cpu)
        *  Thank you very much for using Q-Chem.  Have a nice day.  *
