 Q-Chem 5.0, Q-Chem, Inc., Pleasanton, CA (2017)
 Q-Chem 5.0.2 for Intel X86 EM64T Linux

User input:
--------------------------------------------------------------
$molecule
0 2
C        1.4655987303    0.2702757484    0.3623839299
C        1.1143534031   -1.1889939422    0.4949642879
C        0.7097916904   -1.9840581150   -0.4678018061
C       -1.4774380935    1.2882990769   -1.0393016971
C       -0.7270267542    1.2542629371    0.2541035416
N        0.7221184328    1.2953421379    0.2669107892
H        2.5454418151    0.4569934149    0.3981361009
H        1.3329883876   -1.6085285795    1.4880726627
H        0.4794983167   -3.0345164608   -0.5901163469
H       -1.7017096182    1.8752471527   -1.9174870498
H       -1.0937282117    1.8547323638    1.0912642821
C       -1.5975452351    0.1852897329   -0.3565717857
H       -2.0119826866   -0.8068618616   -0.2758399900
$end

$rem
method                b3lyp
basis                 6-31+g(d,p)
unrestricted          true
symmetry              off
sym_ignore            true
incdft                false
incfock               0
scf_convergence       8
thresh                14
jobtype               opt
scf_guess             read
scf_algorithm         diis
max_scf_cycles        100
geom_opt_max_cycles   300
$end

--------------------------------------------------------------

   15    -286.7809097989      5.67E-09 Convergence criterion met
 Total energy in the final basis set = -286.78090980
   13    -286.7809950983      5.51E-09 Convergence criterion met
 Total energy in the final basis set = -286.78099510
   15    -286.7812679447      5.54E-09 Convergence criterion met
 Total energy in the final basis set = -286.78126794
   15    -286.7746400498      8.24E-09 Convergence criterion met
 Total energy in the final basis set = -286.77464005
   15    -286.7814834306      8.73E-09 Convergence criterion met
 Total energy in the final basis set = -286.78148343
   15    -286.7819929208      4.95E-09 Convergence criterion met
 Total energy in the final basis set = -286.78199292
   16    -286.7690178768      4.10E-09 Convergence criterion met
 Total energy in the final basis set = -286.76901788
   16    -286.7818190286      4.87E-09 Convergence criterion met
   13    -286.7949610853      4.45E-09 Convergence criterion met
 Total energy in the final basis set = -286.79496109
   12    -286.7950047840      5.38E-09 Convergence criterion met
 Total energy in the final basis set = -286.79500478
   11    -286.7950142311      9.71E-09 Convergence criterion met
 Total energy in the final basis set = -286.79501423
   11    -286.7950193834      6.30E-09 Convergence criterion met
 Total energy in the final basis set = -286.79501938
   10    -286.7950226123      7.56E-09 Convergence criterion met
 Total energy in the final basis set = -286.79502261
    9    -286.7950238788      9.60E-09 Convergence criterion met
 Total energy in the final basis set = -286.79502388

             Standard Nuclear Orientation (Angstroms)
    I     Atom           X                Y                Z
 ----------------------------------------------------------------
    1      C       1.5359910452     0.0828747704     0.1446656157
    2      C       1.3378548849    -1.1123242841     1.0069964501
    3      C       0.2092745513    -1.7327165310     1.3033710870
    4      C      -1.6941530606     1.5950262316    -0.6616497637
    5      C      -0.7043427496     0.4679630013    -0.4912535199
    6      N       0.6856044833     0.7823557733    -0.5098853890
    7      H       2.5773848705     0.4030130455     0.0665697959
    8      H       2.2728583957    -1.4981117959     1.4331515715
    9      H      -0.0646520051    -2.5907421948     1.9048018548
   10      H      -2.1319874446     2.4539268089    -0.1772497206
   11      H      -0.9843779942    -0.4092883418     0.1109518252
   12      C      -1.5364232775     0.8343610447    -1.6967724756
   13      H      -1.7426715226     0.5811460775    -2.7249804127
 ----------------------------------------------------------------

    9    -286.7950241677      8.41E-09 Convergence criterion met
 Total energy in the final basis set = -286.79502417
 Final energy is   -286.795024167731
 **  OPTIMIZATION CONVERGED  **

                    Orbital Energies (a.u.)
 --------------------------------------------------------------

 Alpha MOs
 -- Occupied --
-14.337 -10.237 -10.237 -10.228 -10.219 -10.218 -10.215  -0.938
 -0.870  -0.786  -0.671  -0.600  -0.578  -0.541  -0.518  -0.496
 -0.460  -0.428  -0.385  -0.362  -0.313  -0.288  -0.282  -0.256
 -0.223

 Beta MOs
 -- Occupied --
-14.337 -10.236 -10.236 -10.219 -10.218 -10.216 -10.213  -0.937
 -0.869  -0.773  -0.663  -0.590  -0.578  -0.536  -0.511  -0.489
 -0.448  -0.423  -0.386  -0.361  -0.310  -0.286  -0.256  -0.250

          Ground-State Mulliken Net Atomic Charges

     Atom                 Charge (a.u.)    Spin (a.u.)
  --------------------------------------------------------
      1 C                    -0.140180       0.046076
      2 C                     0.011977      -0.216058
      3 C                    -0.183579       1.042689
      4 C                    -0.179257      -0.004510
      5 C                    -0.080832       0.068013
      6 N                    -0.082879      -0.010349
      7 H                     0.120199       0.003174
      8 H                     0.141554       0.082427
      9 H                     0.152704       0.011054
     10 H                     0.142697      -0.001176
     11 H                     0.132672      -0.016089
     12 C                    -0.177829      -0.004032
     13 H                     0.142753      -0.001219
  --------------------------------------------------------
  Sum of atomic charges =    -0.000000

                    Cartesian Multipole Moments
 -----------------------------------------------------------------
    Charge (ESU x 10^10)
                -0.0000
    Dipole Moment (Debye)
         X      -0.5287      Y      -1.0891      Z       0.7335
       Tot       1.4156
    Quadrupole Moments (Debye-Ang)
        XX     -38.0078     XY      -3.6717     YY     -40.4735
        XZ       3.2120     YZ      -0.9934     ZZ     -39.8448

 Total job time:  1058.74s(wall), 3219.13s(cpu)
        *  Thank you very much for using Q-Chem.  Have a nice day.  *
