 Q-Chem 5.0, Q-Chem, Inc., Pleasanton, CA (2017)
 Q-Chem 5.0.2 for Intel X86 EM64T Linux

User input:
--------------------------------------------------------------
$molecule
0 2
C        1.4653478620    0.2652175491    0.3204145808
C        1.0632135057   -1.1813032995    0.4819974370
C        0.8591477446   -2.0317637923   -0.4957011412
C       -1.4812187782    1.2963042303   -1.0073913130
C       -0.7143739246    1.2629001699    0.2771342032
N        0.7354401836    1.3025140409    0.2572805719
H        2.5486739341    0.4276360348    0.3014512639
H        1.0282704992   -1.5293041623    1.5250326205
H        0.6102432166   -3.0789475296   -0.6088645394
H       -1.7112679878    1.8815613071   -1.8852464088
H       -1.0704403207    1.8602915794    1.1206366990
C       -1.5872156779    0.1909921858   -0.3267845682
H       -1.9854600668   -0.8086147038   -0.2512424860
$end

$rem
method                b3lyp
basis                 6-31+g(d,p)
unrestricted          true
symmetry              off
sym_ignore            true
incdft                false
incfock               0
scf_convergence       8
thresh                14
jobtype               opt
scf_guess             read
scf_algorithm         diis
max_scf_cycles        100
geom_opt_max_cycles   300
$end

--------------------------------------------------------------

   19    -286.7809364284      7.50E-09 Convergence criterion met
 Total energy in the final basis set = -286.78093643
   14    -286.7810915742      3.53E-09 Convergence criterion met
 Total energy in the final basis set = -286.78109157
   15    -286.7814896493      2.42E-09 Convergence criterion met
 Total energy in the final basis set = -286.78148965
   14    -286.7821002399      6.19E-09 Convergence criterion met
 Total energy in the final basis set = -286.78210024
   15    -286.7767077592      3.72E-09 Convergence criterion met
 Total energy in the final basis set = -286.77670776
   14    -286.7831250577      8.21E-09 Convergence criterion met
 Total energy in the final basis set = -286.78312506
   14    -286.7842939042      6.49E-09 Convergence criterion met
 Total energy in the final basis set = -286.78429390
   14    -286.7844476931      6.86E-09 Convergence criterion met
   14    -286.7956888512      6.29E-09 Convergence criterion met
 Total energy in the final basis set = -286.79568885
   14    -286.7959165814      5.75E-09 Convergence criterion met
 Total energy in the final basis set = -286.79591658
   11    -286.7959721452      6.43E-09 Convergence criterion met
 Total energy in the final basis set = -286.79597215
   13    -286.7959961642      2.01E-09 Convergence criterion met
 Total energy in the final basis set = -286.79599616
   12    -286.7959996035      8.88E-09 Convergence criterion met
 Total energy in the final basis set = -286.79599960
   10    -286.7960010477      7.95E-09 Convergence criterion met
 Total energy in the final basis set = -286.79600105

             Standard Nuclear Orientation (Angstroms)
    I     Atom           X                Y                Z
 ----------------------------------------------------------------
    1      C       1.2573544307    -0.2538754861    -0.4429122419
    2      C       1.2166473941    -1.2672837209     0.6339394858
    3      C       2.2350465726    -2.0631977320     0.9077679932
    4      C      -1.6620218102     1.9503806857    -0.1983659119
    5      C      -0.9382450257     0.6251176540    -0.1944080562
    6      N       0.3475046340     0.5693532666    -0.8161391746
    7      H       2.2019324000    -0.2125197376    -0.9889255709
    8      H       0.3047151625    -1.3629063919     1.2305136334
    9      H       2.4702774976    -2.8564799297     1.6047502087
   10      H      -1.6746427919     2.9410589099     0.2287600114
   11      H      -1.1275666671    -0.0703403930     0.6283972697
   12      C      -2.1061848551     1.0734349659    -1.0400439235
   13      H      -2.7644567516     0.7847415190    -1.8446168035
 ----------------------------------------------------------------

   11    -286.7960019062      4.61E-09 Convergence criterion met
 Total energy in the final basis set = -286.79600191
 Final energy is   -286.796001906175
 **  OPTIMIZATION CONVERGED  **

                    Orbital Energies (a.u.)
 --------------------------------------------------------------

 Alpha MOs
 -- Occupied --
-14.335 -10.241 -10.237 -10.236 -10.218 -10.218 -10.217  -0.936
 -0.869  -0.795  -0.661  -0.607  -0.578  -0.548  -0.513  -0.506
 -0.467  -0.428  -0.385  -0.362  -0.320  -0.287  -0.271  -0.255
 -0.240

 Beta MOs
 -- Occupied --
-14.336 -10.241 -10.236 -10.221 -10.219 -10.218 -10.217  -0.937
 -0.869  -0.780  -0.655  -0.593  -0.578  -0.543  -0.509  -0.500
 -0.459  -0.421  -0.386  -0.362  -0.316  -0.287  -0.253  -0.250

          Ground-State Mulliken Net Atomic Charges

     Atom                 Charge (a.u.)    Spin (a.u.)
  --------------------------------------------------------
      1 C                    -0.257116       0.066219
      2 C                     0.301435      -0.402701
      3 C                    -0.400487       1.296935
      4 C                    -0.162863      -0.004506
      5 C                    -0.016885       0.003864
      6 N                    -0.116272      -0.037906
      7 H                     0.129140       0.003763
      8 H                     0.137215       0.073607
      9 H                     0.160032       0.007477
     10 H                     0.140922      -0.000533
     11 H                     0.103692      -0.001208
     12 C                    -0.159788      -0.004476
     13 H                     0.140974      -0.000535
  --------------------------------------------------------
  Sum of atomic charges =    -0.000000

                    Cartesian Multipole Moments
 -----------------------------------------------------------------
    Charge (ESU x 10^10)
                -0.0000
    Dipole Moment (Debye)
         X      -1.1297      Y      -0.9165      Z       1.5539
       Tot       2.1286
    Quadrupole Moments (Debye-Ang)
        XX     -39.9738     XY      -3.1536     YY     -38.6756
        XZ       2.7229     YZ      -0.7935     ZZ     -41.7429

 Total job time:  770.89s(wall), 2420.11s(cpu)
        *  Thank you very much for using Q-Chem.  Have a nice day.  *
