 Q-Chem 5.0, Q-Chem, Inc., Pleasanton, CA (2017)
 Q-Chem 5.0.2 for Intel X86 EM64T Linux

User input:
--------------------------------------------------------------
$molecule
0 2
C        1.5261120191    0.2823998020    0.6697659773
C        1.0972289682   -1.0098286500    0.4324461205
C       -0.1575940425   -1.4433720349   -0.1271523590
C       -1.2393358011    0.7884342166   -0.5032724649
C       -0.2744246816    1.6673626431   -0.0480740357
N        0.9612499246    1.4976022847    0.4779004187
H        2.5255510377    0.3608900613    1.1033706514
H        1.7990871818   -1.7951192913    0.7028276008
H       -0.2857686699   -2.5193594907   -0.2262905290
H       -2.1516602502    1.2454761228   -0.8790338708
H       -0.5457249603    2.7229459673   -0.1204472999
C       -1.1866370566   -0.6506783505   -0.5403412485
H       -2.0680836691   -1.1467532807   -0.9416989612
$end

$rem
method                b3lyp
basis                 6-31g(d)
unrestricted          true
symmetry              off
sym_ignore            true
incdft                false
incfock               0
scf_convergence       8
thresh                14
jobtype               opt
scf_guess             core
scf_guess_mix         5
scf_algorithm         diis
max_scf_cycles        100
geom_opt_max_cycles   300
$end

--------------------------------------------------------------

   23    -286.9243386648      4.64E-09 Convergence criterion met
 Total energy in the final basis set = -286.92433866

             Standard Nuclear Orientation (Angstroms)
    I     Atom           X                Y                Z
 ----------------------------------------------------------------
    1      C       1.5258961124     0.2824471965     0.6702683021
    2      C       1.0972415062    -1.0098392889     0.4323167911
    3      C      -0.1574804803    -1.4433073095    -0.1273746205
    4      C      -1.2393572906     0.7884358064    -0.5030886509
    5      C      -0.2742916996     1.6674858601    -0.0482145404
    6      N       0.9612765364     1.4976486453     0.4779372259
    7      H       2.5255110387     0.3610345247     1.1034228404
    8      H       1.7990316334    -1.7951751195     0.7027375272
    9      H      -0.2859150848    -2.5192998038    -0.2266366739
   10      H      -2.1517230449     1.2453558637    -0.8788841434
   11      H      -0.5454201615     2.7230961082    -0.1207795702
   12      C      -1.1866646495    -0.6508610922    -0.5401971568
   13      H      -2.0681044156    -1.1470213914    -0.9415073311
 ----------------------------------------------------------------

   18    -286.9243388365      2.91E-09 Convergence criterion met
 Total energy in the final basis set = -286.92433884
 Final energy is   -286.924338836518
 **  OPTIMIZATION CONVERGED  **

                    Orbital Energies (a.u.)
 --------------------------------------------------------------

 Alpha MOs
 -- Occupied --
-14.322 -10.232 -10.232 -10.212 -10.211 -10.201 -10.200  -0.922
 -0.818  -0.784  -0.693  -0.667  -0.551  -0.537  -0.518  -0.449
 -0.439  -0.414  -0.394  -0.386  -0.349  -0.322  -0.299  -0.251
 -0.162

 Beta MOs
 -- Occupied --
-14.314 -10.233 -10.233 -10.210 -10.210 -10.196 -10.196  -0.911
 -0.809  -0.777  -0.681  -0.665  -0.546  -0.535  -0.514  -0.447
 -0.438  -0.411  -0.383  -0.373  -0.348  -0.295  -0.276  -0.241

          Ground-State Mulliken Net Atomic Charges

     Atom                 Charge (a.u.)    Spin (a.u.)
  --------------------------------------------------------
      1 C                     0.035612      -0.112449
      2 C                    -0.131440       0.346653
      3 C                    -0.111250       0.094061
      4 C                    -0.131595       0.347258
      5 C                     0.035505      -0.112802
      6 N                    -0.423362       0.386993
      7 H                     0.142597       0.003393
      8 H                     0.134325      -0.018317
      9 H                     0.141951      -0.006652
     10 H                     0.134364      -0.018347
     11 H                     0.142637       0.003411
     12 C                    -0.111281       0.093419
     13 H                     0.141937      -0.006621
  --------------------------------------------------------
  Sum of atomic charges =    -0.000000

                    Cartesian Multipole Moments
 -----------------------------------------------------------------
    Charge (ESU x 10^10)
                -0.0000
    Dipole Moment (Debye)
         X      -1.1710      Y      -1.8234      Z      -0.5821
       Tot       2.2438
    Quadrupole Moments (Debye-Ang)
        XX     -37.9050     XY      -3.5608     YY     -39.6283
        XZ       2.2059     YZ      -1.3850     ZZ     -42.4671

 Total job time:  35.67s(wall), 114.83s(cpu)
        *  Thank you very much for using Q-Chem.  Have a nice day.  *
