 Q-Chem 5.0, Q-Chem, Inc., Pleasanton, CA (2017)
 Q-Chem 5.0.2 for Intel X86 EM64T Linux

User input:
--------------------------------------------------------------
$molecule
0 2
C        1.3466637608    0.0104365167    0.2039185446
C        1.0887031059   -1.3381661652    0.7512374264
C        2.0460805097   -2.1084247330    1.2331244293
C       -1.8102835579    1.7871357684   -0.3547768344
C       -0.8749993102    0.6029607014   -0.3850023911
N        0.5268312114    0.8618775154   -0.2894318835
H        2.3972137680    0.3108406333    0.2325780041
H        0.0597001816   -1.7108276015    0.7539916598
H        2.1295115841   -3.0940141536    1.6733798591
H       -2.2375383520    2.5500609421    0.2786509460
H       -1.2378448381   -0.3549326315    0.0034783460
C       -1.6337275873    1.2507505790   -1.5172192544
H       -1.8003104760    1.2323026286   -2.5839288521
$end

$rem
method                b3lyp
basis                 6-31g(d)
unrestricted          true
symmetry              off
sym_ignore            true
incdft                false
incfock               0
scf_convergence       8
thresh                14
jobtype               opt
scf_guess             core
scf_guess_mix         5
scf_algorithm         diis
max_scf_cycles        100
geom_opt_max_cycles   300
$end

--------------------------------------------------------------

   24    -286.7710644372      2.16E-09 Convergence criterion met
 Total energy in the final basis set = -286.77106444
   15    -286.7710651296      5.53E-09 Convergence criterion met
 Total energy in the final basis set = -286.77106513

             Standard Nuclear Orientation (Angstroms)
    I     Atom           X                Y                Z
 ----------------------------------------------------------------
    1      C       1.3460752019     0.0090529781     0.2030165238
    2      C       1.0889605942    -1.3388868179     0.7527585083
    3      C       2.0470136290    -2.1072040908     1.2363412756
    4      C      -1.8103450463     1.7868378699    -0.3533290186
    5      C      -0.8757296071     0.6024435227    -0.3877015112
    6      N       0.5267045036     0.8598137233    -0.2924616343
    7      H       2.3968421029     0.3088491616     0.2297461358
    8      H       0.0605996697    -1.7131179375     0.7552131938
    9      H       2.1313597127    -3.0917784399     1.6786931116
   10      H      -2.2366731386     2.5482851467     0.2825234912
   11      H      -1.2385735633    -0.3568763509    -0.0029961810
   12      C      -1.6345510995     1.2539991433    -1.5175681168
   13      H      -1.8016829592     1.2385820917    -2.5842357784
 ----------------------------------------------------------------

   15    -286.7710657819      4.67E-09 Convergence criterion met
 Total energy in the final basis set = -286.77106578
 Final energy is   -286.771065781861
 **  OPTIMIZATION CONVERGED  **

                    Orbital Energies (a.u.)
 --------------------------------------------------------------

 Alpha MOs
 -- Occupied --
-14.319 -10.230 -10.225 -10.222 -10.208 -10.207 -10.204  -0.924
 -0.858  -0.782  -0.650  -0.596  -0.571  -0.539  -0.503  -0.497
 -0.455  -0.417  -0.373  -0.352  -0.308  -0.276  -0.260  -0.243
 -0.228

 Beta MOs
 -- Occupied --
-14.320 -10.230 -10.224 -10.208 -10.207 -10.207 -10.206  -0.925
 -0.858  -0.768  -0.643  -0.582  -0.571  -0.534  -0.499  -0.490
 -0.447  -0.410  -0.375  -0.351  -0.305  -0.276  -0.240  -0.238

          Ground-State Mulliken Net Atomic Charges

     Atom                 Charge (a.u.)    Spin (a.u.)
  --------------------------------------------------------
      1 C                     0.040956       0.060616
      2 C                    -0.129069      -0.167843
      3 C                    -0.198240       1.067016
      4 C                    -0.117355      -0.002236
      5 C                    -0.014425       0.006008
      6 N                    -0.361559      -0.038965
      7 H                     0.139819       0.006301
      8 H                     0.158214       0.071616
      9 H                     0.171132       0.002616
     10 H                     0.152601      -0.000616
     11 H                     0.123125      -0.001295
     12 C                    -0.117774      -0.002637
     13 H                     0.152577      -0.000583
  --------------------------------------------------------
  Sum of atomic charges =    -0.000000

                    Cartesian Multipole Moments
 -----------------------------------------------------------------
    Charge (ESU x 10^10)
                -0.0000
    Dipole Moment (Debye)
         X      -1.3598      Y      -1.3496      Z       0.3747
       Tot       1.9522
    Quadrupole Moments (Debye-Ang)
        XX     -39.3887     XY      -3.7026     YY     -37.5548
        XZ       1.6741     YZ      -1.4460     ZZ     -38.7781

 Total job time:  43.61s(wall), 138.83s(cpu)
        *  Thank you very much for using Q-Chem.  Have a nice day.  *
