 Q-Chem 5.0, Q-Chem, Inc., Pleasanton, CA (2017)
 Q-Chem 5.0.2 for Intel X86 EM64T Linux

User input:
--------------------------------------------------------------
$molecule
0 2
C        1.4561485708    0.2751398970    0.3654313167
C        1.0665299911   -1.1802554370    0.4549359792
C        0.8038749381   -1.9646318485   -0.5625651577
C       -1.4501366220    1.2196744880   -1.0271908076
C       -0.7139947650    1.2870922374    0.2742366890
N        0.7330210542    1.3154535979    0.3066850230
H        2.5406148539    0.4388347657    0.3983295307
H        1.1062235658   -1.5950301236    1.4733846645
H        0.5625565941   -3.0091881594   -0.7171620873
H       -1.6565733180    1.7345136664   -1.9544659509
H       -1.0885028546    1.9549114157    1.0558853931
C       -1.5882919331    0.1805991868   -0.2585564341
H       -2.0111098943   -0.7996300891   -0.1002312424
$end

$rem
method                b3lyp
basis                 6-31+g(d,p)
unrestricted          true
symmetry              off
sym_ignore            true
incdft                false
incfock               0
scf_convergence       6
thresh                14
jobtype               sp
scf_guess             read
scf_algorithm         diis
max_scf_cycles        100
stability_analysis    true
max_cis_cycles        100
cis_n_roots           4
$end

--------------------------------------------------------------

             Standard Nuclear Orientation (Angstroms)
    I     Atom           X                Y                Z
 ----------------------------------------------------------------
    1      C       1.4561485708     0.2751398970     0.3654313167
    2      C       1.0665299911    -1.1802554370     0.4549359792
    3      C       0.8038749381    -1.9646318485    -0.5625651577
    4      C      -1.4501366220     1.2196744880    -1.0271908076
    5      C      -0.7139947650     1.2870922374     0.2742366890
    6      N       0.7330210542     1.3154535979     0.3066850230
    7      H       2.5406148539     0.4388347657     0.3983295307
    8      H       1.1062235658    -1.5950301236     1.4733846645
    9      H       0.5625565941    -3.0091881594    -0.7171620873
   10      H      -1.6565733180     1.7345136664    -1.9544659509
   11      H      -1.0885028546     1.9549114157     1.0558853931
   12      C      -1.5882919331     0.1805991868    -0.2585564341
   13      H      -2.0111098943    -0.7996300891    -0.1002312424
 ----------------------------------------------------------------

    2    -286.7807257180      1.77E-09 Convergence criterion met
 Total energy in the final basis set = -286.78072572

         TDDFT/TDA Excitation Energies
 ---------------------------------------------------

 Excited state   1: excitation energy (eV) =    3.0318
 Total energy for state  1:                  -286.66931031 au
    <S**2>     :  0.7742
    Trans. Mom.: -0.1837 X   0.2251 Y   0.0605 Z
    Strength   :     0.0065427803
    D( 21) --> S(  1) amplitude = -0.3446 beta
    D( 22) --> S(  1) amplitude =  0.4157 beta
    D( 23) --> S(  1) amplitude =  0.7643 beta
    D( 24) --> S(  1) amplitude =  0.2903 beta

 Excited state   2: excitation energy (eV) =    3.2117
 Total energy for state  2:                  -286.66269763 au
    <S**2>     :  0.8275
    Trans. Mom.: -0.0631 X   0.4262 Y   0.0914 Z
    Strength   :     0.0152608766
    D( 23) --> S(  1) amplitude = -0.2570 beta
    D( 24) --> S(  1) amplitude =  0.9438 beta

 Excited state   3: excitation energy (eV) =    3.8176
 Total energy for state  3:                  -286.64043271 au
    <S**2>     :  2.3754
    Trans. Mom.:  0.0499 X  -0.0776 Y   0.0172 Z
    Strength   :     0.0008232256
    D( 24) --> V(  1) amplitude =  0.2045 alpha
    S(  1) --> V(  1) amplitude = -0.7475 alpha
    D( 24) --> V(  1) amplitude =  0.4934 beta

 Excited state   4: excitation energy (eV) =    4.1458
 Total energy for state  4:                  -286.62836899 au
    <S**2>     :  1.1456
    Trans. Mom.: -0.1122 X   0.0971 Y   0.0307 Z
    Strength   :     0.0023318398
    D( 23) --> V(  3) amplitude = -0.1599 alpha
    D( 24) --> V(  2) amplitude = -0.1522 alpha
    S(  1) --> V(  2) amplitude = -0.3411 alpha
    D( 21) --> S(  1) amplitude =  0.4309 beta
    D( 22) --> S(  1) amplitude = -0.4788 beta
    D( 23) --> S(  1) amplitude =  0.5197 beta
    D( 23) --> V(  1) amplitude =  0.1583 beta

 ---------------------------------------------------

                    Orbital Energies (a.u.)
 --------------------------------------------------------------

 Alpha MOs
 -- Occupied --
-14.339 -10.245 -10.239 -10.229 -10.218 -10.214 -10.212  -0.937
 -0.866  -0.791  -0.670  -0.604  -0.574  -0.541  -0.510  -0.489
 -0.470  -0.442  -0.385  -0.349  -0.302  -0.297  -0.270  -0.263
 -0.230

 Beta MOs
 -- Occupied --
-14.339 -10.244 -10.239 -10.220 -10.214 -10.214 -10.212  -0.937
 -0.866  -0.778  -0.663  -0.592  -0.574  -0.537  -0.507  -0.476
 -0.462  -0.440  -0.384  -0.348  -0.297  -0.293  -0.265  -0.244

          Ground-State Mulliken Net Atomic Charges

     Atom                 Charge (a.u.)    Spin (a.u.)
  --------------------------------------------------------
      1 C                    -0.103488       0.007544
      2 C                     0.035549      -0.257871
      3 C                    -0.246401       1.133946
      4 C                    -0.088899       0.009537
      5 C                    -0.222881       0.006396
      6 N                    -0.128833       0.009271
      7 H                     0.139958       0.001069
      8 H                     0.158231       0.085674
      9 H                     0.151425       0.010759
     10 H                     0.137796      -0.000243
     11 H                     0.134825       0.000299
     12 C                    -0.101960      -0.006250
     13 H                     0.134677      -0.000130
  --------------------------------------------------------
  Sum of atomic charges =     0.000000

                    Cartesian Multipole Moments
 -----------------------------------------------------------------
    Charge (ESU x 10^10)
                 0.0000
    Dipole Moment (Debye)
         X      -0.9194      Y      -2.1059      Z       0.2966
       Tot       2.3169
    Quadrupole Moments (Debye-Ang)
        XX     -41.1638     XY      -2.0316     YY     -41.0360
        XZ       1.9039     YZ      -2.3194     ZZ     -40.5880

 Total job time:  231.16s(wall), 215.98s(cpu)
        *  Thank you very much for using Q-Chem.  Have a nice day.  *
