 Q-Chem 5.0, Q-Chem, Inc., Pleasanton, CA (2017)
 Q-Chem 5.0.2 for Intel X86 EM64T Linux

User input:
--------------------------------------------------------------
$molecule
0 2
C        1.4561485708    0.2751398970    0.3654313167
C        1.0665299911   -1.1802554370    0.4549359792
C        0.8038749381   -1.9646318485   -0.5625651577
C       -1.4501366220    1.2196744880   -1.0271908076
C       -0.7139947650    1.2870922374    0.2742366890
N        0.7330210542    1.3154535979    0.3066850230
H        2.5406148539    0.4388347657    0.3983295307
H        1.1062235658   -1.5950301236    1.4733846645
H        0.5625565941   -3.0091881594   -0.7171620873
H       -1.6565733180    1.7345136664   -1.9544659509
H       -1.0885028546    1.9549114157    1.0558853931
C       -1.5882919331    0.1805991868   -0.2585564341
H       -2.0111098943   -0.7996300891   -0.1002312424
$end

$rem
method                b3lyp
basis                 6-31g(d)
unrestricted          true
symmetry              off
sym_ignore            true
incdft                false
incfock               0
scf_convergence       8
thresh                14
jobtype               sp
scf_guess             read
scf_algorithm         diis
max_scf_cycles        100
$end

--------------------------------------------------------------

             Standard Nuclear Orientation (Angstroms)
    I     Atom           X                Y                Z
 ----------------------------------------------------------------
    1      C       1.4561485708     0.2751398970     0.3654313167
    2      C       1.0665299911    -1.1802554370     0.4549359792
    3      C       0.8038749381    -1.9646318485    -0.5625651577
    4      C      -1.4501366220     1.2196744880    -1.0271908076
    5      C      -0.7139947650     1.2870922374     0.2742366890
    6      N       0.7330210542     1.3154535979     0.3066850230
    7      H       2.5406148539     0.4388347657     0.3983295307
    8      H       1.1062235658    -1.5950301236     1.4733846645
    9      H       0.5625565941    -3.0091881594    -0.7171620873
   10      H      -1.6565733180     1.7345136664    -1.9544659509
   11      H      -1.0885028546     1.9549114157     1.0558853931
   12      C      -1.5882919331     0.1805991868    -0.2585564341
   13      H      -2.0111098943    -0.7996300891    -0.1002312424
 ----------------------------------------------------------------

    2    -286.7564126690      5.71E-09 Convergence criterion met
 Total energy in the final basis set = -286.75641267

                    Orbital Energies (a.u.)
 --------------------------------------------------------------

 Alpha MOs
 -- Occupied --
-14.323 -10.233 -10.228 -10.215 -10.205 -10.203 -10.202  -0.924
 -0.854  -0.778  -0.658  -0.594  -0.566  -0.533  -0.501  -0.479
 -0.459  -0.431  -0.374  -0.338  -0.290  -0.285  -0.258  -0.251
 -0.218

 Beta MOs
 -- Occupied --
-14.323 -10.232 -10.228 -10.207 -10.203 -10.202 -10.200  -0.924
 -0.853  -0.765  -0.652  -0.582  -0.566  -0.528  -0.499  -0.465
 -0.452  -0.429  -0.373  -0.337  -0.285  -0.282  -0.253  -0.231

          Ground-State Mulliken Net Atomic Charges

     Atom                 Charge (a.u.)    Spin (a.u.)
  --------------------------------------------------------
      1 C                     0.033292       0.038982
      2 C                    -0.179978      -0.173156
      3 C                    -0.168790       1.036226
      4 C                    -0.107012       0.007976
      5 C                    -0.036628       0.001174
      6 N                    -0.323985       0.001478
      7 H                     0.148302       0.001352
      8 H                     0.164749       0.084795
      9 H                     0.164446       0.004689
     10 H                     0.147185      -0.000300
     11 H                     0.137583       0.000259
     12 C                    -0.124024      -0.003294
     13 H                     0.144861      -0.000182
  --------------------------------------------------------
  Sum of atomic charges =    -0.000000

                    Cartesian Multipole Moments
 -----------------------------------------------------------------
    Charge (ESU x 10^10)
                -0.0000
    Dipole Moment (Debye)
         X      -0.8156      Y      -1.9711      Z       0.2145
       Tot       2.1439
    Quadrupole Moments (Debye-Ang)
        XX     -39.5050     XY      -1.9789     YY     -39.4212
        XZ       1.7717     YZ      -2.0732     ZZ     -39.1384

 Total job time:  3.94s(wall), 6.53s(cpu)
        *  Thank you very much for using Q-Chem.  Have a nice day.  *
