 Q-Chem 5.0, Q-Chem, Inc., Pleasanton, CA (2017)
 Q-Chem 5.0.2 for Intel X86 EM64T Linux

User input:
--------------------------------------------------------------
$molecule
0 2
C        1.5435678408    0.2246571329    0.2984686107
C        1.1139254691   -1.1471046782    0.6879482707
C        0.8726693082   -2.1610249913   -0.1093211630
C       -1.5401636358    1.2768631253   -0.8463533246
C       -0.5608147784    1.3685686564    0.1968716833
N        0.7813626290    1.2118635802    0.0950800573
H        2.6231269576    0.3947805127    0.2013452330
H        0.9647598714   -1.2572108845    1.7742782439
H        0.6061246096   -3.1898798147    0.1158775877
H       -2.3782757265    1.9813035230   -0.9095102924
H       -0.8284293305    1.7462170154    1.1937572012
C       -1.3257921628    0.0228694814   -1.2839254496
H       -2.1117008707   -0.6144190614   -1.7057997420
$end

$rem
method                b3lyp
basis                 6-31g(d)
unrestricted          true
symmetry              off
sym_ignore            true
incdft                false
incfock               0
scf_convergence       8
thresh                14
jobtype               sp
scf_guess             core
scf_guess_mix         5
scf_algorithm         diis
max_scf_cycles        100
$end

--------------------------------------------------------------

             Standard Nuclear Orientation (Angstroms)
    I     Atom           X                Y                Z
 ----------------------------------------------------------------
    1      C       1.5435678408     0.2246571329     0.2984686107
    2      C       1.1139254691    -1.1471046782     0.6879482707
    3      C       0.8726693082    -2.1610249913    -0.1093211630
    4      C      -1.5401636358     1.2768631253    -0.8463533246
    5      C      -0.5608147784     1.3685686564     0.1968716833
    6      N       0.7813626290     1.2118635802     0.0950800573
    7      H       2.6231269576     0.3947805127     0.2013452330
    8      H       0.9647598714    -1.2572108845     1.7742782439
    9      H       0.6061246096    -3.1898798147     0.1158775877
   10      H      -2.3782757265     1.9813035230    -0.9095102924
   11      H      -0.8284293305     1.7462170154     1.1937572012
   12      C      -1.3257921628     0.0228694814    -1.2839254496
   13      H      -2.1117008707    -0.6144190614    -1.7057997420
 ----------------------------------------------------------------

   29    -286.6947013068      5.59E-09 Convergence criterion met
 Total energy in the final basis set = -286.69470131

                    Orbital Energies (a.u.)
 --------------------------------------------------------------

 Alpha MOs
 -- Occupied --
-14.373 -10.267 -10.264 -10.211 -10.202 -10.188 -10.168  -0.963
 -0.806  -0.773  -0.699  -0.613  -0.567  -0.516  -0.500  -0.476
 -0.470  -0.454  -0.390  -0.325  -0.319  -0.279  -0.262  -0.238
 -0.177

 Beta MOs
 -- Occupied --
-14.373 -10.266 -10.265 -10.203 -10.196 -10.187 -10.164  -0.964
 -0.805  -0.764  -0.694  -0.603  -0.561  -0.512  -0.498  -0.474
 -0.460  -0.444  -0.389  -0.324  -0.319  -0.272  -0.260  -0.165

          Ground-State Mulliken Net Atomic Charges

     Atom                 Charge (a.u.)    Spin (a.u.)
  --------------------------------------------------------
      1 C                     0.074573       0.028169
      2 C                    -0.190751      -0.159342
      3 C                    -0.137790       0.970267
      4 C                    -0.141813       0.009761
      5 C                     0.037707      -0.123285
      6 N                    -0.259636      -0.015826
      7 H                     0.171066       0.000633
      8 H                     0.160866       0.077182
      9 H                     0.156942       0.009691
     10 H                     0.113716       0.004847
     11 H                     0.163690       0.006519
     12 C                    -0.270945       0.180904
     13 H                     0.122374       0.010481
  --------------------------------------------------------
  Sum of atomic charges =     0.000000

                    Cartesian Multipole Moments
 -----------------------------------------------------------------
    Charge (ESU x 10^10)
                -0.0000
    Dipole Moment (Debye)
         X       0.1801      Y      -0.0154      Z       2.5746
       Tot       2.5809
    Quadrupole Moments (Debye-Ang)
        XX     -37.9019     XY      -1.3138     YY     -38.9239
        XZ       1.0487     YZ      -0.0566     ZZ     -41.1679

 Total job time:  22.60s(wall), 69.91s(cpu)
        *  Thank you very much for using Q-Chem.  Have a nice day.  *
