 Q-Chem 5.0, Q-Chem, Inc., Pleasanton, CA (2017)
 Q-Chem 5.0.2 for Intel X86 EM64T Linux

User input:
--------------------------------------------------------------
$molecule
0 2
C        1.4654978291    0.2701017705    0.3397065807
C        1.0914971679   -1.1840572982    0.4884132181
C        0.7837244936   -2.0057521936   -0.4870967366
C       -1.4835318726    1.2908638298   -1.0218046363
C       -0.7224398320    1.2575649783    0.2656561190
N        0.7272229639    1.2999530831    0.2599420606
H        2.5473606977    0.4462584056    0.3481804624
H        1.1910930428   -1.5697235819    1.5138956807
H        0.5465676644   -3.0553049146   -0.6036564065
H       -1.7130329042    1.8768970455   -1.8992560399
H       -1.0829948790    1.8553160100    1.1072345242
C       -1.5934196931    0.1861545465   -0.3404513770
H       -1.9971844973   -0.8107880839   -0.2620465332
$end

$rem
method                b3lyp
basis                 6-31+g(d,p)
unrestricted          true
symmetry              off
sym_ignore            true
incdft                false
incfock               0
scf_convergence       6
thresh                14
jobtype               sp
scf_guess             read
scf_algorithm         diis
max_scf_cycles        100
stability_analysis    true
max_cis_cycles        100
cis_n_roots           4
$end

--------------------------------------------------------------

             Standard Nuclear Orientation (Angstroms)
    I     Atom           X                Y                Z
 ----------------------------------------------------------------
    1      C       1.4654978291     0.2701017705     0.3397065807
    2      C       1.0914971679    -1.1840572982     0.4884132181
    3      C       0.7837244936    -2.0057521936    -0.4870967366
    4      C      -1.4835318726     1.2908638298    -1.0218046363
    5      C      -0.7224398320     1.2575649783     0.2656561190
    6      N       0.7272229639     1.2999530831     0.2599420606
    7      H       2.5473606977     0.4462584056     0.3481804624
    8      H       1.1910930428    -1.5697235819     1.5138956807
    9      H       0.5465676644    -3.0553049146    -0.6036564065
   10      H      -1.7130329042     1.8768970455    -1.8992560399
   11      H      -1.0829948790     1.8553160100     1.1072345242
   12      C      -1.5934196931     0.1861545465    -0.3404513770
   13      H      -1.9971844973    -0.8107880839    -0.2620465332
 ----------------------------------------------------------------

    2    -286.7808012396      8.06E-10 Convergence criterion met
 Total energy in the final basis set = -286.78080124

         TDDFT/TDA Excitation Energies
 ---------------------------------------------------

 Excited state   1: excitation energy (eV) =    3.0692
 Total energy for state  1:                  -286.66800840 au
    <S**2>     :  0.7764
    Trans. Mom.: -0.1758 X   0.2246 Y   0.0524 Z
    Strength   :     0.0063231392
    D( 21) --> S(  1) amplitude = -0.2507 beta
    D( 22) --> S(  1) amplitude =  0.5243 beta
    D( 23) --> S(  1) amplitude =  0.7387 beta
    D( 24) --> S(  1) amplitude =  0.2661 beta

 Excited state   2: excitation energy (eV) =    3.1740
 Total energy for state  2:                  -286.66415727 au
    <S**2>     :  0.8326
    Trans. Mom.: -0.0662 X   0.4348 Y   0.0727 Z
    Strength   :     0.0154513418
    D( 23) --> S(  1) amplitude = -0.2257 beta
    D( 24) --> S(  1) amplitude =  0.9506 beta

 Excited state   3: excitation energy (eV) =    3.7560
 Total energy for state  3:                  -286.64276973 au
    <S**2>     :  2.3487
    Trans. Mom.: -0.0621 X   0.0859 Y  -0.0180 Z
    Strength   :     0.0010624564
    D( 24) --> V(  1) amplitude = -0.1807 alpha
    S(  1) --> V(  1) amplitude =  0.7438 alpha
    S(  1) --> V(  2) amplitude =  0.2066 alpha
    D( 24) --> V(  1) amplitude = -0.4775 beta

 Excited state   4: excitation energy (eV) =    4.1125
 Total energy for state  4:                  -286.62966818 au
    <S**2>     :  1.2476
    Trans. Mom.:  0.1078 X  -0.1029 Y  -0.0150 Z
    Strength   :     0.0022615531
    D( 23) --> V(  1) amplitude =  0.1781 alpha
    D( 23) --> V(  3) amplitude =  0.1847 alpha
    S(  1) --> V(  2) amplitude =  0.2352 alpha
    S(  1) --> V(  3) amplitude =  0.1903 alpha
    D( 21) --> S(  1) amplitude = -0.2279 beta
    D( 22) --> S(  1) amplitude =  0.5877 beta
    D( 23) --> S(  1) amplitude = -0.5489 beta
    D( 23) --> V(  1) amplitude = -0.1775 beta
    D( 23) --> V(  3) amplitude = -0.1544 beta

 ---------------------------------------------------

                    Orbital Energies (a.u.)
 --------------------------------------------------------------

 Alpha MOs
 -- Occupied --
-14.339 -10.246 -10.239 -10.229 -10.218 -10.213 -10.212  -0.936
 -0.866  -0.791  -0.669  -0.605  -0.574  -0.541  -0.510  -0.489
 -0.470  -0.445  -0.384  -0.346  -0.305  -0.296  -0.271  -0.263
 -0.229

 Beta MOs
 -- Occupied --
-14.339 -10.245 -10.239 -10.220 -10.214 -10.213 -10.212  -0.936
 -0.865  -0.777  -0.663  -0.593  -0.573  -0.537  -0.507  -0.475
 -0.463  -0.443  -0.383  -0.345  -0.301  -0.291  -0.267  -0.242

          Ground-State Mulliken Net Atomic Charges

     Atom                 Charge (a.u.)    Spin (a.u.)
  --------------------------------------------------------
      1 C                    -0.097736       0.006463
      2 C                     0.044156      -0.255235
      3 C                    -0.247519       1.133460
      4 C                    -0.075425       0.011304
      5 C                    -0.220822       0.006013
      6 N                    -0.132791       0.008753
      7 H                     0.140178       0.001083
      8 H                     0.157946       0.085596
      9 H                     0.152153       0.009876
     10 H                     0.137339      -0.000397
     11 H                     0.135827       0.000268
     12 C                    -0.128444      -0.007092
     13 H                     0.135139      -0.000093
  --------------------------------------------------------
  Sum of atomic charges =     0.000000

                    Cartesian Multipole Moments
 -----------------------------------------------------------------
    Charge (ESU x 10^10)
                 0.0000
    Dipole Moment (Debye)
         X      -0.8308      Y      -2.0441      Z       0.3867
       Tot       2.2401
    Quadrupole Moments (Debye-Ang)
        XX     -40.9639     XY      -2.1480     YY     -40.7713
        XZ       2.1296     YZ      -2.2329     ZZ     -40.7068

 Total job time:  214.53s(wall), 207.24s(cpu)
        *  Thank you very much for using Q-Chem.  Have a nice day.  *
