 Q-Chem 5.0, Q-Chem, Inc., Pleasanton, CA (2017)
 Q-Chem 5.0.2 for Intel X86 EM64T Linux

User input:
--------------------------------------------------------------
$molecule
0 2
C        1.4561485708    0.2751398970    0.3654313167
C        1.0665299911   -1.1802554370    0.4549359792
C        0.8038749381   -1.9646318485   -0.5625651577
C       -1.4501366220    1.2196744880   -1.0271908076
C       -0.7139947650    1.2870922374    0.2742366890
N        0.7330210542    1.3154535979    0.3066850230
H        2.5406148539    0.4388347657    0.3983295307
H        1.1062235658   -1.5950301236    1.4733846645
H        0.5625565941   -3.0091881594   -0.7171620873
H       -1.6565733180    1.7345136664   -1.9544659509
H       -1.0885028546    1.9549114157    1.0558853931
C       -1.5882919331    0.1805991868   -0.2585564341
H       -2.0111098943   -0.7996300891   -0.1002312424
$end

$rem
method                b3lyp
basis                 6-31+g(d,p)
unrestricted          true
symmetry              off
sym_ignore            true
incdft                false
incfock               0
scf_convergence       8
thresh                14
jobtype               freq
scf_guess             read
scf_algorithm         diis
max_scf_cycles        100
$end

--------------------------------------------------------------

             Standard Nuclear Orientation (Angstroms)
    I     Atom           X                Y                Z
 ----------------------------------------------------------------
    1      C       1.4561485708     0.2751398970     0.3654313167
    2      C       1.0665299911    -1.1802554370     0.4549359792
    3      C       0.8038749381    -1.9646318485    -0.5625651577
    4      C      -1.4501366220     1.2196744880    -1.0271908076
    5      C      -0.7139947650     1.2870922374     0.2742366890
    6      N       0.7330210542     1.3154535979     0.3066850230
    7      H       2.5406148539     0.4388347657     0.3983295307
    8      H       1.1062235658    -1.5950301236     1.4733846645
    9      H       0.5625565941    -3.0091881594    -0.7171620873
   10      H      -1.6565733180     1.7345136664    -1.9544659509
   11      H      -1.0885028546     1.9549114157     1.0558853931
   12      C      -1.5882919331     0.1805991868    -0.2585564341
   13      H      -2.0111098943    -0.7996300891    -0.1002312424
 ----------------------------------------------------------------

    2    -286.7807257180      2.80E-09 Convergence criterion met
 Total energy in the final basis set = -286.78072572

                    Orbital Energies (a.u.)
 --------------------------------------------------------------

 Alpha MOs
 -- Occupied --
-14.339 -10.245 -10.239 -10.229 -10.218 -10.214 -10.212  -0.937
 -0.866  -0.791  -0.670  -0.604  -0.574  -0.541  -0.510  -0.489
 -0.470  -0.442  -0.385  -0.349  -0.302  -0.297  -0.270  -0.263
 -0.230

 Beta MOs
 -- Occupied --
-14.339 -10.244 -10.239 -10.220 -10.214 -10.214 -10.212  -0.937
 -0.866  -0.778  -0.663  -0.592  -0.574  -0.537  -0.507  -0.476
 -0.462  -0.440  -0.384  -0.348  -0.297  -0.293  -0.265  -0.244

          Ground-State Mulliken Net Atomic Charges

     Atom                 Charge (a.u.)    Spin (a.u.)
  --------------------------------------------------------
      1 C                    -0.103488       0.007546
      2 C                     0.035549      -0.257873
      3 C                    -0.246401       1.133947
      4 C                    -0.088899       0.009539
      5 C                    -0.222881       0.006395
      6 N                    -0.128833       0.009269
      7 H                     0.139958       0.001069
      8 H                     0.158231       0.085674
      9 H                     0.151425       0.010759
     10 H                     0.137796      -0.000243
     11 H                     0.134825       0.000299
     12 C                    -0.101960      -0.006251
     13 H                     0.134677      -0.000130
  --------------------------------------------------------
  Sum of atomic charges =     0.000000

                    Cartesian Multipole Moments
 -----------------------------------------------------------------
    Charge (ESU x 10^10)
                 0.0000
    Dipole Moment (Debye)
         X      -0.9194      Y      -2.1059      Z       0.2966
       Tot       2.3169
    Quadrupole Moments (Debye-Ang)
        XX     -41.1638     XY      -2.0316     YY     -41.0360
        XZ       1.9039     YZ      -2.3194     ZZ     -40.5880

 Frequency:      -123.29                  33.16                 177.44
 Force Cnst:      0.0221                 0.0018                 0.0668
 Red. Mass:       2.4650                 2.8167                 3.6034
 IR Intens:        3.942                  1.542                  0.649
 Frequency:       217.65                 324.85                 410.30
 Force Cnst:      0.1017                 0.1742                 0.2397
 Red. Mass:       3.6446                 2.8022                 2.4164
 IR Intens:        3.100                  2.351                 11.893
 Frequency:       543.26                 586.86                 658.13
 Force Cnst:      0.4319                 0.2956                 0.4747
 Red. Mass:       2.4837                 1.4568                 1.8602
 IR Intens:       22.081                  9.082                114.530
 Frequency:       724.25                 797.28                 823.59
 Force Cnst:      0.8252                 0.5271                 0.6659
 Red. Mass:       2.6703                 1.4075                 1.6663
 IR Intens:       17.770                  6.783                  7.524
 Frequency:       830.75                 866.11                 908.04
 Force Cnst:      0.7715                 0.6646                 1.6300
 Red. Mass:       1.8974                 1.5036                 3.3554
 IR Intens:        8.796                  0.250                 10.600
 Frequency:       933.82                 956.18                1016.08
 Force Cnst:      0.6147                 1.2173                 1.5019
 Red. Mass:       1.1964                 2.2598                 2.4690
 IR Intens:        6.406                 39.659                 16.763
 Frequency:      1041.45                1065.69                1195.81
 Force Cnst:      1.1078                 0.9192                 3.2825
 Red. Mass:       1.7336                 1.3738                 3.8961
 IR Intens:       23.535                  7.631                 18.338
 Frequency:      1224.72                1384.02                1402.32
 Force Cnst:      1.1275                 1.2843                 1.4338
 Red. Mass:       1.2759                 1.1380                 1.2375
 IR Intens:       16.973                 21.253                 18.966
 Frequency:      1674.57                1719.60                1735.09
 Force Cnst:     12.3814                 9.2699                17.9293
 Red. Mass:       7.4940                 5.3207                10.1081
 IR Intens:        9.715                 26.446                 99.143
 Frequency:      3019.40                3063.45                3077.05
 Force Cnst:      5.8089                 6.0008                 6.0472
 Red. Mass:       1.0814                 1.0853                 1.0840
 IR Intens:        5.456                 32.727                 44.191
 Frequency:      3247.24                3254.04                3299.02
 Force Cnst:      6.8601                 6.7705                 7.3280
 Red. Mass:       1.1042                 1.0852                 1.1428
 IR Intens:        0.798                  0.029                  0.103

 STANDARD THERMODYNAMIC QUANTITIES AT   298.15 K  AND     1.00 ATM

   This Molecule has  1 Imaginary Frequencies
   Zero point vibrational energy:       60.344 kcal/mol

   Atom    1 Element C  Has Mass   12.00000
   Atom    2 Element C  Has Mass   12.00000
   Atom    3 Element C  Has Mass   12.00000
   Atom    4 Element C  Has Mass   12.00000
   Atom    5 Element C  Has Mass   12.00000
   Atom    6 Element N  Has Mass   14.00307
   Atom    7 Element H  Has Mass    1.00783
   Atom    8 Element H  Has Mass    1.00783
   Atom    9 Element H  Has Mass    1.00783
   Atom   10 Element H  Has Mass    1.00783
   Atom   11 Element H  Has Mass    1.00783
   Atom   12 Element C  Has Mass   12.00000
   Atom   13 Element H  Has Mass    1.00783
   Molecular Mass:    92.050050 amu
   Principal axes and moments of inertia in amu*Bohr^2:
                             1           2           3
    Eigenvalues --      383.64060   769.44365  1034.75475
          X              -0.68802     0.62459    -0.36948
          Y               0.71270     0.67747    -0.18190
          Z              -0.13670     0.38848     0.91126
   Rotational Symmetry Number is   1
   The Molecule is an Asymmetric Top
   Translational Enthalpy:        0.889 kcal/mol
   Rotational Enthalpy:           0.889 kcal/mol
   Vibrational Enthalpy:         62.766 kcal/mol
   gas constant (RT):             0.592 kcal/mol
   Translational Entropy:        39.471  cal/mol.K
   Rotational Entropy:           27.215  cal/mol.K
   Vibrational Entropy:          15.325  cal/mol.K

   Total Enthalpy:               65.136 kcal/mol
   Total Entropy:                82.011  cal/mol.K

 Total job time:  521.65s(wall), 513.14s(cpu)
        *  Thank you very much for using Q-Chem.  Have a nice day.  *
