 Q-Chem 5.0, Q-Chem, Inc., Pleasanton, CA (2017)
 Q-Chem 5.0.2 for Intel X86 EM64T Linux

User input:
--------------------------------------------------------------
$molecule
0 2
C        1.4654978291    0.2701017705    0.3397065807
C        1.0914971679   -1.1840572982    0.4884132181
C        0.7837244936   -2.0057521936   -0.4870967366
C       -1.4835318726    1.2908638298   -1.0218046363
C       -0.7224398320    1.2575649783    0.2656561190
N        0.7272229639    1.2999530831    0.2599420606
H        2.5473606977    0.4462584056    0.3481804624
H        1.1910930428   -1.5697235819    1.5138956807
H        0.5465676644   -3.0553049146   -0.6036564065
H       -1.7130329042    1.8768970455   -1.8992560399
H       -1.0829948790    1.8553160100    1.1072345242
C       -1.5934196931    0.1861545465   -0.3404513770
H       -1.9971844973   -0.8107880839   -0.2620465332
$end

$rem
method                b3lyp
basis                 6-31+g(d,p)
unrestricted          true
symmetry              off
sym_ignore            true
incdft                false
incfock               0
scf_convergence       8
thresh                14
jobtype               freq
scf_guess             read
scf_algorithm         diis
max_scf_cycles        100
$end

--------------------------------------------------------------

             Standard Nuclear Orientation (Angstroms)
    I     Atom           X                Y                Z
 ----------------------------------------------------------------
    1      C       1.4654978291     0.2701017705     0.3397065807
    2      C       1.0914971679    -1.1840572982     0.4884132181
    3      C       0.7837244936    -2.0057521936    -0.4870967366
    4      C      -1.4835318726     1.2908638298    -1.0218046363
    5      C      -0.7224398320     1.2575649783     0.2656561190
    6      N       0.7272229639     1.2999530831     0.2599420606
    7      H       2.5473606977     0.4462584056     0.3481804624
    8      H       1.1910930428    -1.5697235819     1.5138956807
    9      H       0.5465676644    -3.0553049146    -0.6036564065
   10      H      -1.7130329042     1.8768970455    -1.8992560399
   11      H      -1.0829948790     1.8553160100     1.1072345242
   12      C      -1.5934196931     0.1861545465    -0.3404513770
   13      H      -1.9971844973    -0.8107880839    -0.2620465332
 ----------------------------------------------------------------

    2    -286.7808012396      7.27E-10 Convergence criterion met
 Total energy in the final basis set = -286.78080124

                    Orbital Energies (a.u.)
 --------------------------------------------------------------

 Alpha MOs
 -- Occupied --
-14.339 -10.246 -10.239 -10.229 -10.218 -10.213 -10.212  -0.936
 -0.866  -0.791  -0.669  -0.605  -0.574  -0.541  -0.510  -0.489
 -0.470  -0.445  -0.384  -0.346  -0.305  -0.296  -0.271  -0.263
 -0.229

 Beta MOs
 -- Occupied --
-14.339 -10.245 -10.239 -10.220 -10.214 -10.213 -10.212  -0.936
 -0.865  -0.777  -0.663  -0.593  -0.573  -0.537  -0.507  -0.475
 -0.463  -0.443  -0.383  -0.345  -0.301  -0.291  -0.267  -0.242

          Ground-State Mulliken Net Atomic Charges

     Atom                 Charge (a.u.)    Spin (a.u.)
  --------------------------------------------------------
      1 C                    -0.097736       0.006463
      2 C                     0.044156      -0.255235
      3 C                    -0.247519       1.133460
      4 C                    -0.075425       0.011305
      5 C                    -0.220822       0.006013
      6 N                    -0.132791       0.008753
      7 H                     0.140178       0.001083
      8 H                     0.157946       0.085596
      9 H                     0.152153       0.009877
     10 H                     0.137339      -0.000397
     11 H                     0.135827       0.000268
     12 C                    -0.128444      -0.007092
     13 H                     0.135139      -0.000093
  --------------------------------------------------------
  Sum of atomic charges =     0.000000

                    Cartesian Multipole Moments
 -----------------------------------------------------------------
    Charge (ESU x 10^10)
                -0.0000
    Dipole Moment (Debye)
         X      -0.8308      Y      -2.0441      Z       0.3867
       Tot       2.2401
    Quadrupole Moments (Debye-Ang)
        XX     -40.9639     XY      -2.1480     YY     -40.7713
        XZ       2.1296     YZ      -2.2329     ZZ     -40.7068

 Frequency:      -126.05                  41.43                 177.67
 Force Cnst:      0.0224                 0.0029                 0.0649
 Red. Mass:       2.3942                 2.8629                 3.4877
 IR Intens:        4.599                  1.398                  0.821
 Frequency:       218.23                 324.61                 409.93
 Force Cnst:      0.1046                 0.1716                 0.2330
 Red. Mass:       3.7262                 2.7647                 2.3534
 IR Intens:        2.969                  2.472                 13.925
 Frequency:       537.10                 581.15                 656.78
 Force Cnst:      0.4181                 0.2804                 0.5076
 Red. Mass:       2.4602                 1.4092                 1.9971
 IR Intens:       24.579                 12.515                109.104
 Frequency:       720.63                 792.85                 819.23
 Force Cnst:      0.7634                 0.5213                 0.6130
 Red. Mass:       2.4951                 1.4075                 1.5502
 IR Intens:       18.200                  6.656                  4.887
 Frequency:       830.03                 862.59                 902.21
 Force Cnst:      0.8820                 0.6664                 1.6256
 Red. Mass:       2.1729                 1.5201                 3.3897
 IR Intens:       11.861                  0.183                 10.185
 Frequency:       933.35                 952.62                1012.54
 Force Cnst:      0.6017                 1.2361                 1.4998
 Red. Mass:       1.1722                 2.3120                 2.4830
 IR Intens:        5.173                 42.674                 16.689
 Frequency:      1042.40                1059.67                1199.20
 Force Cnst:      1.1259                 0.9163                 3.2072
 Red. Mass:       1.7587                 1.3850                 3.7852
 IR Intens:       21.985                  7.240                 20.927
 Frequency:      1225.70                1375.05                1399.63
 Force Cnst:      1.1260                 1.2759                 1.4368
 Red. Mass:       1.2721                 1.1453                 1.2448
 IR Intens:       17.054                 26.925                 19.938
 Frequency:      1671.65                1708.52                1727.49
 Force Cnst:     12.2951                 9.1997                17.9924
 Red. Mass:       7.4677                 5.3491                10.2332
 IR Intens:       10.157                 26.039                101.964
 Frequency:      3020.23                3073.69                3083.07
 Force Cnst:      5.8113                 6.0403                 6.0718
 Red. Mass:       1.0813                 1.0851                 1.0842
 IR Intens:        5.743                 32.448                 42.003
 Frequency:      3255.96                3261.68                3306.24
 Force Cnst:      6.8972                 6.8049                 7.3466
 Red. Mass:       1.1042                 1.0857                 1.1407
 IR Intens:        0.604                  0.030                  0.136

 STANDARD THERMODYNAMIC QUANTITIES AT   298.15 K  AND     1.00 ATM

   This Molecule has  1 Imaginary Frequencies
   Zero point vibrational energy:       60.304 kcal/mol

   Atom    1 Element C  Has Mass   12.00000
   Atom    2 Element C  Has Mass   12.00000
   Atom    3 Element C  Has Mass   12.00000
   Atom    4 Element C  Has Mass   12.00000
   Atom    5 Element C  Has Mass   12.00000
   Atom    6 Element N  Has Mass   14.00307
   Atom    7 Element H  Has Mass    1.00783
   Atom    8 Element H  Has Mass    1.00783
   Atom    9 Element H  Has Mass    1.00783
   Atom   10 Element H  Has Mass    1.00783
   Atom   11 Element H  Has Mass    1.00783
   Atom   12 Element C  Has Mass   12.00000
   Atom   13 Element H  Has Mass    1.00783
   Molecular Mass:    92.050050 amu
   Principal axes and moments of inertia in amu*Bohr^2:
                             1           2           3
    Eigenvalues --      375.85501   789.27079  1055.57029
          X              -0.68642     0.62582    -0.37038
          Y               0.70933     0.68844    -0.15136
          Z              -0.16026     0.36662     0.91647
   Rotational Symmetry Number is   1
   The Molecule is an Asymmetric Top
   Translational Enthalpy:        0.889 kcal/mol
   Rotational Enthalpy:           0.889 kcal/mol
   Vibrational Enthalpy:         62.724 kcal/mol
   gas constant (RT):             0.592 kcal/mol
   Translational Entropy:        39.471  cal/mol.K
   Rotational Entropy:           27.240  cal/mol.K
   Vibrational Entropy:          14.927  cal/mol.K

   Total Enthalpy:               65.094 kcal/mol
   Total Entropy:                81.637  cal/mol.K

 Total job time:  525.73s(wall), 516.43s(cpu)
        *  Thank you very much for using Q-Chem.  Have a nice day.  *
