 Q-Chem 5.0, Q-Chem, Inc., Pleasanton, CA (2017)
 Q-Chem 5.0.2 for Intel X86 EM64T Linux

User input:
--------------------------------------------------------------
$molecule
0 2
C        1.4561485708    0.2751398970    0.3654313167
C        1.0665299911   -1.1802554370    0.4549359792
C        0.8038749381   -1.9646318485   -0.5625651577
C       -1.4501366220    1.2196744880   -1.0271908076
C       -0.7139947650    1.2870922374    0.2742366890
N        0.7330210542    1.3154535979    0.3066850230
H        2.5406148539    0.4388347657    0.3983295307
H        1.1062235658   -1.5950301236    1.4733846645
H        0.5625565941   -3.0091881594   -0.7171620873
H       -1.6565733180    1.7345136664   -1.9544659509
H       -1.0885028546    1.9549114157    1.0558853931
C       -1.5882919331    0.1805991868   -0.2585564341
H       -2.0111098943   -0.7996300891   -0.1002312424
$end

$rem
method                b3lyp
basis                 6-31+g(d,p)
unrestricted          true
symmetry              off
sym_ignore            true
incdft                false
incfock               0
scf_convergence       8
thresh                14
jobtype               ts
scf_guess             read
scf_algorithm         diis
max_scf_cycles        100
geom_opt_max_cycles   500
geom_opt_dmax         100
geom_opt_tol_gradient 10
geom_opt_hessian      read
$end

--------------------------------------------------------------

    2    -286.7807257180      2.91E-10 Convergence criterion met
 Total energy in the final basis set = -286.78072572
   13    -286.7807741070      4.72E-09 Convergence criterion met
 Total energy in the final basis set = -286.78077411
   13    -286.7808003677      4.21E-09 Convergence criterion met
 Total energy in the final basis set = -286.78080037
   11    -286.7808012245      6.01E-09 Convergence criterion met
 Total energy in the final basis set = -286.78080122

             Standard Nuclear Orientation (Angstroms)
    I     Atom           X                Y                Z
 ----------------------------------------------------------------
    1      C       1.4654978291     0.2701017705     0.3397065807
    2      C       1.0914971679    -1.1840572982     0.4884132181
    3      C       0.7837244936    -2.0057521936    -0.4870967366
    4      C      -1.4835318726     1.2908638298    -1.0218046363
    5      C      -0.7224398320     1.2575649783     0.2656561190
    6      N       0.7272229639     1.2999530831     0.2599420606
    7      H       2.5473606977     0.4462584056     0.3481804624
    8      H       1.1910930428    -1.5697235819     1.5138956807
    9      H       0.5465676644    -3.0553049146    -0.6036564065
   10      H      -1.7130329042     1.8768970455    -1.8992560399
   11      H      -1.0829948790     1.8553160100     1.1072345242
   12      C      -1.5934196931     0.1861545465    -0.3404513770
   13      H      -1.9971844973    -0.8107880839    -0.2620465332
 ----------------------------------------------------------------

    9    -286.7808012396      8.75E-09 Convergence criterion met
 Total energy in the final basis set = -286.78080124
 Final energy is   -286.780801239642
 **  OPTIMIZATION CONVERGED  **

                    Orbital Energies (a.u.)
 --------------------------------------------------------------

 Alpha MOs
 -- Occupied --
-14.339 -10.246 -10.239 -10.229 -10.218 -10.213 -10.212  -0.936
 -0.866  -0.791  -0.669  -0.605  -0.574  -0.541  -0.510  -0.489
 -0.470  -0.445  -0.384  -0.346  -0.305  -0.296  -0.271  -0.263
 -0.229

 Beta MOs
 -- Occupied --
-14.339 -10.245 -10.239 -10.220 -10.214 -10.213 -10.212  -0.936
 -0.865  -0.777  -0.663  -0.593  -0.573  -0.537  -0.507  -0.475
 -0.463  -0.443  -0.383  -0.345  -0.301  -0.291  -0.267  -0.242

          Ground-State Mulliken Net Atomic Charges

     Atom                 Charge (a.u.)    Spin (a.u.)
  --------------------------------------------------------
      1 C                    -0.097736       0.006464
      2 C                     0.044156      -0.255236
      3 C                    -0.247519       1.133460
      4 C                    -0.075425       0.011302
      5 C                    -0.220822       0.006013
      6 N                    -0.132791       0.008752
      7 H                     0.140178       0.001083
      8 H                     0.157946       0.085596
      9 H                     0.152153       0.009877
     10 H                     0.137339      -0.000397
     11 H                     0.135827       0.000268
     12 C                    -0.128444      -0.007090
     13 H                     0.135139      -0.000093
  --------------------------------------------------------
  Sum of atomic charges =    -0.000000

                    Cartesian Multipole Moments
 -----------------------------------------------------------------
    Charge (ESU x 10^10)
                -0.0000
    Dipole Moment (Debye)
         X      -0.8308      Y      -2.0441      Z       0.3867
       Tot       2.2401
    Quadrupole Moments (Debye-Ang)
        XX     -40.9639     XY      -2.1480     YY     -40.7713
        XZ       2.1296     YZ      -2.2329     ZZ     -40.7068

 Total job time:  101.08s(wall), 316.12s(cpu)
        *  Thank you very much for using Q-Chem.  Have a nice day.  *
