 Q-Chem 5.0, Q-Chem, Inc., Pleasanton, CA (2017)
 Q-Chem 5.0.2 for Intel X86 EM64T Linux

User input:
--------------------------------------------------------------
$molecule
0 2
C        1.5435678408    0.2246571329    0.2984686107
C        1.1139254691   -1.1471046782    0.6879482707
C        0.8726693082   -2.1610249913   -0.1093211630
C       -1.5401636358    1.2768631253   -0.8463533246
C       -0.5608147784    1.3685686564    0.1968716833
N        0.7813626290    1.2118635802    0.0950800573
H        2.6231269576    0.3947805127    0.2013452330
H        0.9647598714   -1.2572108845    1.7742782439
H        0.6061246096   -3.1898798147    0.1158775877
H       -2.3782757265    1.9813035230   -0.9095102924
H       -0.8284293305    1.7462170154    1.1937572012
C       -1.3257921628    0.0228694814   -1.2839254496
H       -2.1117008707   -0.6144190614   -1.7057997420
$end

$rem
method                b3lyp
basis                 6-31g(d)
unrestricted          true
symmetry              off
sym_ignore            true
incdft                false
incfock               0
scf_convergence       8
thresh                14
jobtype               freq
scf_guess             read
scf_algorithm         diis
max_scf_cycles        100
$end

--------------------------------------------------------------

             Standard Nuclear Orientation (Angstroms)
    I     Atom           X                Y                Z
 ----------------------------------------------------------------
    1      C       1.5435678408     0.2246571329     0.2984686107
    2      C       1.1139254691    -1.1471046782     0.6879482707
    3      C       0.8726693082    -2.1610249913    -0.1093211630
    4      C      -1.5401636358     1.2768631253    -0.8463533246
    5      C      -0.5608147784     1.3685686564     0.1968716833
    6      N       0.7813626290     1.2118635802     0.0950800573
    7      H       2.6231269576     0.3947805127     0.2013452330
    8      H       0.9647598714    -1.2572108845     1.7742782439
    9      H       0.6061246096    -3.1898798147     0.1158775877
   10      H      -2.3782757265     1.9813035230    -0.9095102924
   11      H      -0.8284293305     1.7462170154     1.1937572012
   12      C      -1.3257921628     0.0228694814    -1.2839254496
   13      H      -2.1117008707    -0.6144190614    -1.7057997420
 ----------------------------------------------------------------

    2    -286.6947013068      8.98E-09 Convergence criterion met
 Total energy in the final basis set = -286.69470131

                    Orbital Energies (a.u.)
 --------------------------------------------------------------

 Alpha MOs
 -- Occupied --
-14.373 -10.267 -10.264 -10.211 -10.202 -10.188 -10.168  -0.963
 -0.806  -0.773  -0.699  -0.613  -0.567  -0.516  -0.500  -0.476
 -0.470  -0.454  -0.390  -0.325  -0.319  -0.279  -0.262  -0.238
 -0.177

 Beta MOs
 -- Occupied --
-14.373 -10.266 -10.265 -10.203 -10.196 -10.187 -10.164  -0.964
 -0.805  -0.764  -0.694  -0.603  -0.561  -0.512  -0.498  -0.474
 -0.460  -0.444  -0.389  -0.324  -0.319  -0.272  -0.260  -0.165

          Ground-State Mulliken Net Atomic Charges

     Atom                 Charge (a.u.)    Spin (a.u.)
  --------------------------------------------------------
      1 C                     0.074573       0.028166
      2 C                    -0.190751      -0.159338
      3 C                    -0.137790       0.970263
      4 C                    -0.141814       0.009759
      5 C                     0.037708      -0.123285
      6 N                    -0.259636      -0.015824
      7 H                     0.171066       0.000633
      8 H                     0.160866       0.077181
      9 H                     0.156942       0.009691
     10 H                     0.113716       0.004847
     11 H                     0.163690       0.006519
     12 C                    -0.270945       0.180905
     13 H                     0.122374       0.010481
  --------------------------------------------------------
  Sum of atomic charges =     0.000000

                    Cartesian Multipole Moments
 -----------------------------------------------------------------
    Charge (ESU x 10^10)
                -0.0000
    Dipole Moment (Debye)
         X       0.1801      Y      -0.0154      Z       2.5746
       Tot       2.5810
    Quadrupole Moments (Debye-Ang)
        XX     -37.9019     XY      -1.3138     YY     -38.9239
        XZ       1.0487     YZ      -0.0566     ZZ     -41.1679

 Frequency:      -447.67                -225.05                  69.62
 Force Cnst:      0.3220                 0.0692                 0.0098
 Red. Mass:       2.7269                 2.3178                 3.4443
 IR Intens:       85.143                 10.569                 13.005
 Frequency:       137.57                 199.22                 299.23
 Force Cnst:      0.0386                 0.0843                 0.1180
 Red. Mass:       3.4633                 3.6040                 2.2363
 IR Intens:       17.147                  1.655                 17.001
 Frequency:       384.21                 488.70                 533.70
 Force Cnst:      0.2999                 0.2598                 0.3120
 Red. Mass:       3.4478                 1.8462                 1.8589
 IR Intens:        7.696                 23.041                 16.181
 Frequency:       591.28                 703.86                 809.73
 Force Cnst:      0.5557                 0.8538                 0.5041
 Red. Mass:       2.6979                 2.9250                 1.3050
 IR Intens:      101.834                 48.253                 24.235
 Frequency:       828.12                 855.53                 891.38
 Force Cnst:      0.5601                 0.6095                 0.7278
 Red. Mass:       1.3863                 1.4134                 1.5547
 IR Intens:       41.581                 69.083                 34.130
 Frequency:       919.57                 957.55                1029.51
 Force Cnst:      0.9461                 0.7745                 1.1583
 Red. Mass:       1.8990                 1.4337                 1.8549
 IR Intens:        9.085                 25.993                 27.249
 Frequency:      1061.49                1219.09                1236.66
 Force Cnst:      1.6960                 1.2142                 1.1307
 Red. Mass:       2.5547                 1.3866                 1.2549
 IR Intens:       68.053                 28.650                 61.129
 Frequency:      1271.18                1414.35                1468.45
 Force Cnst:      1.5404                 1.5117                 3.4702
 Red. Mass:       1.6179                 1.2827                 2.7314
 IR Intens:       26.369                  7.692                 89.326
 Frequency:      1554.48                1695.58                1807.52
 Force Cnst:      4.6529                13.4057                22.3642
 Red. Mass:       3.2682                 7.9141                11.6181
 IR Intens:       10.532                 11.520                 98.694
 Frequency:      3004.72                3048.46                3067.34
 Force Cnst:      5.7486                 5.9309                 6.0063
 Red. Mass:       1.0807                 1.0832                 1.0835
 IR Intens:       16.026                100.287                 37.231
 Frequency:      3091.45                3099.65                3220.41
 Force Cnst:      6.1237                 6.2286                 6.7245
 Red. Mass:       1.0875                 1.1003                 1.1005
 IR Intens:       38.712                 77.221                 10.931

 STANDARD THERMODYNAMIC QUANTITIES AT   298.15 K  AND     1.00 ATM

   This Molecule has  2 Imaginary Frequencies
   Zero point vibrational energy:       58.555 kcal/mol

   Atom    1 Element C  Has Mass   12.00000
   Atom    2 Element C  Has Mass   12.00000
   Atom    3 Element C  Has Mass   12.00000
   Atom    4 Element C  Has Mass   12.00000
   Atom    5 Element C  Has Mass   12.00000
   Atom    6 Element N  Has Mass   14.00307
   Atom    7 Element H  Has Mass    1.00783
   Atom    8 Element H  Has Mass    1.00783
   Atom    9 Element H  Has Mass    1.00783
   Atom   10 Element H  Has Mass    1.00783
   Atom   11 Element H  Has Mass    1.00783
   Atom   12 Element C  Has Mass   12.00000
   Atom   13 Element H  Has Mass    1.00783
   Molecular Mass:    92.050050 amu
   Principal axes and moments of inertia in amu*Bohr^2:
                             1           2           3
    Eigenvalues --      389.23042   829.57406  1127.35921
          X              -0.67192     0.56033    -0.48431
          Y               0.68748     0.71510    -0.12646
          Z              -0.27547     0.41792     0.86571
   Rotational Symmetry Number is   1
   The Molecule is an Asymmetric Top
   Translational Enthalpy:        0.889 kcal/mol
   Rotational Enthalpy:           0.889 kcal/mol
   Vibrational Enthalpy:         61.040 kcal/mol
   gas constant (RT):             0.592 kcal/mol
   Translational Entropy:        39.471  cal/mol.K
   Rotational Entropy:           27.389  cal/mol.K
   Vibrational Entropy:          14.863  cal/mol.K

   Total Enthalpy:               63.410 kcal/mol
   Total Entropy:                81.723  cal/mol.K

 Total job time:  254.71s(wall), 247.39s(cpu)
        *  Thank you very much for using Q-Chem.  Have a nice day.  *
