 Q-Chem 5.0, Q-Chem, Inc., Pleasanton, CA (2017)
 Q-Chem 5.0.2 for Intel X86 EM64T Linux

User input:
--------------------------------------------------------------
$molecule
0 2
C        1.3655594911    0.1436882578   -0.8815442664
C        0.4987667398   -1.1593673726   -1.0339432985
C       -0.8824280576   -0.6119384154   -2.1758364224
C       -1.2627055788   -0.0929561593   -0.3963178616
C       -0.7021095061    0.8304487034   -1.6724331119
N        0.9129986339    1.2911863792   -1.4619129900
H        1.9857964286    0.0085941228   -0.0178807200
H        0.9468164632   -2.1438844656   -0.9521524526
H       -1.5755770124   -1.3834216882   -2.7755661945
H       -2.2162786412    0.0436230358    0.1409321625
H       -1.4190424640    1.5918069154   -1.8461296522
C        0.0284309041   -0.4698683191    0.3300207492
H        0.6597999953   -0.4770836427    1.3015067904
$end

$rem
method                b3lyp
basis                 6-31g(d)
unrestricted          true
symmetry              off
sym_ignore            true
incdft                false
incfock               0
scf_convergence       8
thresh                14
jobtype               opt
scf_guess             read
scf_algorithm         diis
max_scf_cycles        100
geom_opt_tol_gradient 600
geom_opt_tol_displacement 2400
geom_opt_tol_energy   200
geom_opt_max_cycles   100
$end

--------------------------------------------------------------

    2    -286.6382696126      1.91E-09 Convergence criterion met
 Total energy in the final basis set = -286.63826961
   16    -286.6840204177      3.83E-09 Convergence criterion met
 Total energy in the final basis set = -286.68402042
   16    -286.7223544304      3.54E-09 Convergence criterion met
 Total energy in the final basis set = -286.72235443
   15    -286.7529374114      9.39E-09 Convergence criterion met
 Total energy in the final basis set = -286.75293741
   15    -286.7765162619      8.76E-09 Convergence criterion met
 Total energy in the final basis set = -286.77651626
   15    -286.7939297058      8.82E-09 Convergence criterion met
 Total energy in the final basis set = -286.79392971
   15    -286.8065946886      8.45E-09 Convergence criterion met
 Total energy in the final basis set = -286.80659469
   15    -286.8161224151      6.59E-09 Convergence criterion met
   14    -286.8380435458      6.70E-09 Convergence criterion met
 Total energy in the final basis set = -286.83804355
   13    -286.8382512864      8.72E-09 Convergence criterion met
 Total energy in the final basis set = -286.83825129
   12    -286.8383064794      7.03E-09 Convergence criterion met
 Total energy in the final basis set = -286.83830648
   11    -286.8383351319      4.73E-09 Convergence criterion met
 Total energy in the final basis set = -286.83833513
   10    -286.8383427829      9.52E-09 Convergence criterion met
 Total energy in the final basis set = -286.83834278
   11    -286.8383463419      4.74E-09 Convergence criterion met
 Total energy in the final basis set = -286.83834634

             Standard Nuclear Orientation (Angstroms)
    I     Atom           X                Y                Z
 ----------------------------------------------------------------
    1      C       1.4058560867     0.1830991904    -1.0554999799
    2      C       0.5383442452    -1.0594193958    -0.8946460054
    3      C      -0.7544950634    -0.6445171523    -1.6847833198
    4      C      -1.2936678790    -0.0621460347    -0.3638534755
    5      C      -0.6287227680     0.8259428024    -1.5102193270
    6      N       0.7420978423     1.2416628168    -1.3485570812
    7      H       2.4672916635     0.2213885099    -0.8154294537
    8      H       1.0126561441    -2.0331256804    -1.0353552169
    9      H      -1.2749646943    -1.1957979053    -2.4619537436
   10      H      -2.3098011338     0.1737346646    -0.0633881273
   11      H      -1.3081815967     1.5187231811    -1.9961231497
   12      C      -0.2768000400    -0.8018245393     0.3712388548
   13      H       0.0204145892    -0.7968931059     1.4173127572
 ----------------------------------------------------------------

   10    -286.8383476879      5.03E-09 Convergence criterion met
 Total energy in the final basis set = -286.83834769
 Final energy is   -286.838347687864
 **  OPTIMIZATION CONVERGED  **

                    Orbital Energies (a.u.)
 --------------------------------------------------------------

 Alpha MOs
 -- Occupied --
-14.320 -10.224 -10.220 -10.210 -10.209 -10.208 -10.206  -0.968
 -0.856  -0.749  -0.664  -0.606  -0.571  -0.535  -0.517  -0.466
 -0.439  -0.405  -0.400  -0.356  -0.337  -0.298  -0.273  -0.256
 -0.182

 Beta MOs
 -- Occupied --
-14.319 -10.222 -10.219 -10.211 -10.209 -10.207 -10.193  -0.964
 -0.850  -0.741  -0.652  -0.601  -0.567  -0.528  -0.511  -0.461
 -0.434  -0.402  -0.394  -0.348  -0.332  -0.291  -0.262  -0.251

          Ground-State Mulliken Net Atomic Charges

     Atom                 Charge (a.u.)    Spin (a.u.)
  --------------------------------------------------------
      1 C                     0.088742       0.046569
      2 C                    -0.258730      -0.065670
      3 C                    -0.107721       0.078165
      4 C                    -0.163719      -0.095769
      5 C                    -0.019129       0.096496
      6 N                    -0.342259       0.039558
      7 H                     0.143009       0.001388
      8 H                     0.142896       0.022662
      9 H                     0.148128      -0.000817
     10 H                     0.147244       0.005303
     11 H                     0.151393       0.002873
     12 C                    -0.066110       0.888564
     13 H                     0.136255      -0.019321
  --------------------------------------------------------
  Sum of atomic charges =     0.000000

                    Cartesian Multipole Moments
 -----------------------------------------------------------------
    Charge (ESU x 10^10)
                 0.0000
    Dipole Moment (Debye)
         X      -0.8036      Y      -1.8807      Z       0.1486
       Tot       2.0506
    Quadrupole Moments (Debye-Ang)
        XX     -36.9668     XY      -3.6301     YY     -43.7695
        XZ       2.6926     YZ       2.8033     ZZ     -39.9369

 Total job time:  642.79s(wall), 829.53s(cpu)
        *  Thank you very much for using Q-Chem.  Have a nice day.  *
