 Q-Chem 5.0, Q-Chem, Inc., Pleasanton, CA (2017)
 Q-Chem 5.0.2 for Intel X86 EM64T Linux

User input:
--------------------------------------------------------------
$molecule
0 2
C        1.5318179793    0.2370986597   -0.7047426956
C       -0.2659769483   -1.2904815630    0.0260347494
C       -1.4968459983   -1.1572146930    0.6170769803
C       -1.7172412261    0.2390720343    0.8311195313
C       -0.6143868053    0.9087092562    0.3627893083
N        0.2790652730   -0.0256907711   -0.1311352704
H        2.0519708615   -0.6719711935   -1.0198636596
H        0.2803209602   -2.1638436377   -0.3022296997
H       -2.1676136538   -1.9663327029    0.8712621504
H       -2.5899229790    0.6955338118    1.2782888444
H       -0.3728597048    1.9601833690    0.3276108765
C        2.0816436518    1.4239297472   -0.8710821226
H        3.0000285897    1.8110076829   -1.2851289928
$end

$rem
method                b3lyp
basis                 6-31g(d)
unrestricted          true
symmetry              off
sym_ignore            true
incdft                false
incfock               0
scf_convergence       8
thresh                14
jobtype               opt
scf_guess             read
scf_algorithm         diis
max_scf_cycles        100
geom_opt_tol_gradient 600
geom_opt_tol_displacement 2400
geom_opt_tol_energy   200
geom_opt_max_cycles   100
$end

--------------------------------------------------------------

    2    -286.8723841731      8.19E-10 Convergence criterion met
 Total energy in the final basis set = -286.87238417
   12    -286.8723877668      5.86E-09 Convergence criterion met
 Total energy in the final basis set = -286.87238777

             Standard Nuclear Orientation (Angstroms)
    I     Atom           X                Y                Z
 ----------------------------------------------------------------
    1      C       1.5317131818     0.2381159895    -0.7054830450
    2      C      -0.2657176222    -1.2889531721     0.0252888583
    3      C      -1.4963940594    -1.1580740576     0.6178546444
    4      C      -1.7180955117     0.2381474224     0.8313627333
    5      C      -0.6169842163     0.9100395519     0.3614223714
    6      N       0.2778131215    -0.0232593088    -0.1330139559
    7      H       2.0515781982    -0.6703421391    -1.0212008339
    8      H       0.2807951206    -2.1620534005    -0.3018217024
    9      H      -2.1662351524    -1.9682197572     0.8728401195
   10      H      -2.5909410594     0.6936413509     1.2798850580
   11      H      -0.3762851831     1.9622408603     0.3288755452
   12      C       2.0834430848     1.4233691935    -0.8730372384
   13      H       3.0053100976     1.8053474669    -1.2829725547
 ----------------------------------------------------------------

   10    -286.8723884858      8.53E-09 Convergence criterion met
 Total energy in the final basis set = -286.87238849
 Final energy is   -286.872388485763
 **  OPTIMIZATION CONVERGED  **

                    Orbital Energies (a.u.)
 --------------------------------------------------------------

 Alpha MOs
 -- Occupied --
-14.392 -10.242 -10.214 -10.205 -10.201 -10.171 -10.170  -0.988
 -0.817  -0.737  -0.720  -0.618  -0.574  -0.544  -0.513  -0.476
 -0.428  -0.423  -0.417  -0.386  -0.374  -0.304  -0.255  -0.224
 -0.210

 Beta MOs
 -- Occupied --
-14.391 -10.243 -10.205 -10.201 -10.198 -10.171 -10.170  -0.987
 -0.812  -0.725  -0.717  -0.605  -0.573  -0.543  -0.500  -0.466
 -0.424  -0.424  -0.414  -0.385  -0.374  -0.301  -0.216  -0.211

          Ground-State Mulliken Net Atomic Charges

     Atom                 Charge (a.u.)    Spin (a.u.)
  --------------------------------------------------------
      1 C                     0.068194      -0.140427
      2 C                     0.027574      -0.002628
      3 C                    -0.193416      -0.005380
      4 C                    -0.186589      -0.008659
      5 C                     0.037265       0.008945
      6 N                    -0.401317       0.019486
      7 H                     0.163207       0.068819
      8 H                     0.144868       0.000098
      9 H                     0.128645       0.001015
     10 H                     0.128854       0.000827
     11 H                     0.154928       0.000528
     12 C                    -0.244459       1.062383
     13 H                     0.172246      -0.005007
  --------------------------------------------------------
  Sum of atomic charges =     0.000000

                    Cartesian Multipole Moments
 -----------------------------------------------------------------
    Charge (ESU x 10^10)
                 0.0000
    Dipole Moment (Debye)
         X       1.2476      Y      -0.3579      Z      -0.6221
       Tot       1.4393
    Quadrupole Moments (Debye-Ang)
        XX     -36.3827     XY      -0.1636     YY     -37.2225
        XZ      -4.0451     YZ       0.6609     ZZ     -42.9086

 Total job time:  105.77s(wall), 87.16s(cpu)
        *  Thank you very much for using Q-Chem.  Have a nice day.  *
