 Q-Chem 5.0, Q-Chem, Inc., Pleasanton, CA (2017)
 Q-Chem 5.0.2 for Intel X86 EM64T Linux

User input:
--------------------------------------------------------------
$molecule
0 2
C        1.4349551279    0.2156395271   -1.0076185014
C       -0.3433945681   -1.9499406028   -0.3578931370
C       -1.2421647846   -1.2533440052    0.3178882625
C       -1.2277770457    0.1475336197    0.7539818497
C       -0.4441460807    1.1888551214    0.3943658033
N        0.5088144118    1.3409833787   -0.6422653464
H        1.4371146539   -0.6294016197   -1.6682791416
H       -0.2352885807   -2.9751848193   -0.6872535400
H       -2.1354753248   -1.8064455841    0.6408250532
H       -1.9880211178    0.3856771046    1.4950127694
H       -0.6305392827    2.1443055085    0.8836205232
C        1.9666427377    1.1425650564   -0.2965490773
H        2.7543341751    1.6949647349    0.1840909209
$end

$rem
method                b3lyp
basis                 6-31+g(d,p)
unrestricted          true
symmetry              off
sym_ignore            true
incdft                false
incfock               0
scf_convergence       8
thresh                14
jobtype               opt
scf_guess             read
scf_algorithm         diis
max_scf_cycles        100
geom_opt_max_cycles   300
$end

--------------------------------------------------------------

   20    -286.7454058031      5.42E-09 Convergence criterion met
 Total energy in the final basis set = -286.74540580
   17    -286.7464528625      4.54E-09 Convergence criterion met
 Total energy in the final basis set = -286.74645286
   16    -286.7474239881      4.56E-09 Convergence criterion met
 Total energy in the final basis set = -286.74742399
   15    -286.7481130329      8.29E-09 Convergence criterion met
 Total energy in the final basis set = -286.74811303
   14    -286.7491599229      9.36E-09 Convergence criterion met
 Total energy in the final basis set = -286.74915992
   15    -286.7506115199      5.85E-09 Convergence criterion met
 Total energy in the final basis set = -286.75061152
   14    -286.7507825898      5.19E-09 Convergence criterion met
 Total energy in the final basis set = -286.75078259
   13    -286.7508550833      2.14E-09 Convergence criterion met
 Total energy in the final basis set = -286.75085508
   12    -286.7508815367      4.56E-09 Convergence criterion met
 Total energy in the final basis set = -286.75088154
   12    -286.7508913601      4.33E-09 Convergence criterion met
 Total energy in the final basis set = -286.75089136
   11    -286.7508961581      6.37E-09 Convergence criterion met
 Total energy in the final basis set = -286.75089616
   10    -286.7508989396      9.53E-09 Convergence criterion met
 Total energy in the final basis set = -286.75089894
    9    -286.7509003232      9.85E-09 Convergence criterion met
 Total energy in the final basis set = -286.75090032

             Standard Nuclear Orientation (Angstroms)
    I     Atom           X                Y                Z
 ----------------------------------------------------------------
    1      C       1.7256943936     0.1294538652    -0.5741169140
    2      C      -0.7232207695    -1.8060552201    -0.7656447866
    3      C      -1.3179586184    -1.2757220027     0.2961509001
    4      C      -1.2029704833     0.0783375358     0.8346907209
    5      C      -0.3825245779     1.0641327257     0.4071911959
    6      N       0.4811041484     0.9812656634    -0.7058089261
    7      H       1.9790376746    -0.9134828050    -0.6388286615
    8      H      -0.7630374055    -2.7598305740    -1.2763957607
    9      H      -2.0135230268    -1.9257629982     0.8440834244
   10      H      -1.8707496159     0.3186907962     1.6571755413
   11      H      -0.4406256515     2.0489804847     0.8707531320
   12      C       1.9078775587     1.3965088127    -0.4972661900
   13      H       2.4759506949     2.3096911364    -0.4420572372
 ----------------------------------------------------------------

   10    -286.7509010536      6.06E-09 Convergence criterion met
 Total energy in the final basis set = -286.75090105
 Final energy is   -286.750901053632
 **  OPTIMIZATION CONVERGED  **

                    Orbital Energies (a.u.)
 --------------------------------------------------------------

 Alpha MOs
 -- Occupied --
-14.366 -10.252 -10.250 -10.218 -10.210 -10.204 -10.192  -0.985
 -0.812  -0.757  -0.682  -0.606  -0.597  -0.546  -0.504  -0.489
 -0.444  -0.421  -0.394  -0.385  -0.332  -0.315  -0.250  -0.233
 -0.206

 Beta MOs
 -- Occupied --
-14.366 -10.252 -10.250 -10.219 -10.205 -10.195 -10.191  -0.985
 -0.809  -0.748  -0.674  -0.605  -0.587  -0.541  -0.498  -0.483
 -0.441  -0.410  -0.393  -0.382  -0.329  -0.313  -0.246  -0.202

          Ground-State Mulliken Net Atomic Charges

     Atom                 Charge (a.u.)    Spin (a.u.)
  --------------------------------------------------------
      1 C                    -0.043436      -0.003928
      2 C                    -0.350541       1.201616
      3 C                    -0.113931      -0.270784
      4 C                    -0.096508       0.091996
      5 C                    -0.035524      -0.117801
      6 N                    -0.163022      -0.000028
      7 H                     0.172886      -0.000192
      8 H                     0.146243       0.009172
      9 H                     0.136670       0.082456
     10 H                     0.119091      -0.002578
     11 H                     0.122557       0.004695
     12 C                    -0.055767       0.003872
     13 H                     0.161281       0.001504
  --------------------------------------------------------
  Sum of atomic charges =    -0.000000

                    Cartesian Multipole Moments
 -----------------------------------------------------------------
    Charge (ESU x 10^10)
                -0.0000
    Dipole Moment (Debye)
         X       1.5132      Y       0.0282      Z       1.1051
       Tot       1.8740
    Quadrupole Moments (Debye-Ang)
        XX     -37.9396     XY       3.4368     YY     -35.2400
        XZ      -3.5427     YZ       2.7160     ZZ     -45.2163

 Total job time:  486.74s(wall), 1138.20s(cpu)
        *  Thank you very much for using Q-Chem.  Have a nice day.  *
