 Q-Chem 5.0, Q-Chem, Inc., Pleasanton, CA (2017)
 Q-Chem 5.0.2 for Intel X86 EM64T Linux

User input:
--------------------------------------------------------------
$molecule
0 2
C        1.3611836815    0.1680363770   -1.0293631840
C       -0.2474969814   -1.8876034479   -0.2865789766
C       -1.2186390614   -1.2341157614    0.3283807345
C       -1.2463752393    0.1680196696    0.7636127767
C       -0.4677649886    1.2090109211    0.4013819772
N        0.5096395636    1.3458711264   -0.6195521563
H        1.3618705710   -0.5668181527   -1.8107032294
H       -0.0875687412   -2.9027572459   -0.6270603305
H       -2.1198350733   -1.8066889597    0.5868523390
H       -2.0203588229    0.3990997780    1.4918627763
H       -0.6587381753    2.1718630833    0.8732171520
C        1.9346009282    1.0424295691   -0.2756500226
H        2.7545366587    1.5398604413    0.2135265779
$end

$rem
method                b3lyp
basis                 6-31+g(d,p)
unrestricted          true
symmetry              off
sym_ignore            true
incdft                false
incfock               0
scf_convergence       8
thresh                14
jobtype               sp
scf_guess             core
scf_guess_mix         5
scf_algorithm         diis
max_scf_cycles        100
$end

--------------------------------------------------------------

             Standard Nuclear Orientation (Angstroms)
    I     Atom           X                Y                Z
 ----------------------------------------------------------------
    1      C       1.3611836815     0.1680363770    -1.0293631840
    2      C      -0.2474969814    -1.8876034479    -0.2865789766
    3      C      -1.2186390614    -1.2341157614     0.3283807345
    4      C      -1.2463752393     0.1680196696     0.7636127767
    5      C      -0.4677649886     1.2090109211     0.4013819772
    6      N       0.5096395636     1.3458711264    -0.6195521563
    7      H       1.3618705710    -0.5668181527    -1.8107032294
    8      H      -0.0875687412    -2.9027572459    -0.6270603305
    9      H      -2.1198350733    -1.8066889597     0.5868523390
   10      H      -2.0203588229     0.3990997780     1.4918627763
   11      H      -0.6587381753     2.1718630833     0.8732171520
   12      C       1.9346009282     1.0424295691    -0.2756500226
   13      H       2.7545366587     1.5398604413     0.2135265779
 ----------------------------------------------------------------

   23    -286.7448422331      7.50E-09 Convergence criterion met
 Total energy in the final basis set = -286.74484223

                    Orbital Energies (a.u.)
 --------------------------------------------------------------

 Alpha MOs
 -- Occupied --
-14.365 -10.251 -10.247 -10.219 -10.213 -10.208 -10.194  -0.982
 -0.811  -0.761  -0.684  -0.604  -0.600  -0.543  -0.498  -0.494
 -0.446  -0.426  -0.389  -0.380  -0.336  -0.317  -0.252  -0.229
 -0.206

 Beta MOs
 -- Occupied --
-14.365 -10.249 -10.248 -10.219 -10.209 -10.199 -10.193  -0.982
 -0.807  -0.753  -0.676  -0.601  -0.590  -0.538  -0.491  -0.486
 -0.442  -0.416  -0.386  -0.378  -0.333  -0.314  -0.239  -0.205

          Ground-State Mulliken Net Atomic Charges

     Atom                 Charge (a.u.)    Spin (a.u.)
  --------------------------------------------------------
      1 C                    -0.213660      -0.154555
      2 C                    -0.240179       1.048096
      3 C                    -0.159349      -0.208916
      4 C                     0.010382       0.063507
      5 C                    -0.166161      -0.047122
      6 N                    -0.145157       0.009511
      7 H                     0.173929       0.005436
      8 H                     0.146644       0.009359
      9 H                     0.138289       0.077013
     10 H                     0.119626      -0.000577
     11 H                     0.125069       0.003498
     12 C                     0.049687       0.202666
     13 H                     0.160881      -0.007915
  --------------------------------------------------------
  Sum of atomic charges =    -0.000000

                    Cartesian Multipole Moments
 -----------------------------------------------------------------
    Charge (ESU x 10^10)
                -0.0000
    Dipole Moment (Debye)
         X       1.0386      Y      -0.8629      Z       0.5073
       Tot       1.4424
    Quadrupole Moments (Debye-Ang)
        XX     -36.8214     XY       2.5803     YY     -40.3378
        XZ      -2.3435     YZ       5.3172     ZZ     -42.7631

 Total job time:  46.73s(wall), 114.94s(cpu)
        *  Thank you very much for using Q-Chem.  Have a nice day.  *
