 Q-Chem 5.0, Q-Chem, Inc., Pleasanton, CA (2017)
 Q-Chem 5.0.2 for Intel X86 EM64T Linux

User input:
--------------------------------------------------------------
$molecule
0 2
C        1.7586962830    0.1245848535   -0.5129239105
C       -0.7170330843   -1.7673416386   -0.7884281540
C       -1.3380479511   -1.2246155184    0.2518547221
C       -1.2176795828    0.1283741198    0.7919235104
C       -0.3658656956    1.0986763871    0.3911426563
N        0.5341954163    0.9973424915   -0.6911639165
H        1.9955334523   -0.9228140475   -0.5669767957
H       -0.7553349461   -2.7217179804   -1.2981827401
H       -2.0636447873   -1.8609441089    0.7764109448
H       -1.9089929749    0.3822470876    1.5905757302
H       -0.4227819120    2.0856950885    0.8501801565
C        1.9595214288    1.3886705773   -0.4337777935
H        2.5414343537    2.2918426884   -0.3606344099
$end

$rem
method                b3lyp
basis                 6-31+g(d,p)
unrestricted          true
symmetry              off
sym_ignore            true
incdft                false
incfock               0
scf_convergence       8
thresh                14
jobtype               sp
scf_guess             core
scf_guess_mix         5
scf_algorithm         diis
max_scf_cycles        100
$end

--------------------------------------------------------------

             Standard Nuclear Orientation (Angstroms)
    I     Atom           X                Y                Z
 ----------------------------------------------------------------
    1      C       1.7586962830     0.1245848535    -0.5129239105
    2      C      -0.7170330843    -1.7673416386    -0.7884281540
    3      C      -1.3380479511    -1.2246155184     0.2518547221
    4      C      -1.2176795828     0.1283741198     0.7919235104
    5      C      -0.3658656956     1.0986763871     0.3911426563
    6      N       0.5341954163     0.9973424915    -0.6911639165
    7      H       1.9955334523    -0.9228140475    -0.5669767957
    8      H      -0.7553349461    -2.7217179804    -1.2981827401
    9      H      -2.0636447873    -1.8609441089     0.7764109448
   10      H      -1.9089929749     0.3822470876     1.5905757302
   11      H      -0.4227819120     2.0856950885     0.8501801565
   12      C       1.9595214288     1.3886705773    -0.4337777935
   13      H       2.5414343537     2.2918426884    -0.3606344099
 ----------------------------------------------------------------

   23    -286.7509080795      6.25E-09 Convergence criterion met
 Total energy in the final basis set = -286.75090808

                    Orbital Energies (a.u.)
 --------------------------------------------------------------

 Alpha MOs
 -- Occupied --
-14.366 -10.252 -10.250 -10.218 -10.210 -10.204 -10.192  -0.985
 -0.812  -0.757  -0.682  -0.606  -0.597  -0.546  -0.505  -0.489
 -0.444  -0.421  -0.394  -0.385  -0.332  -0.315  -0.250  -0.233
 -0.206

 Beta MOs
 -- Occupied --
-14.366 -10.252 -10.250 -10.219 -10.205 -10.195 -10.191  -0.985
 -0.809  -0.748  -0.674  -0.605  -0.587  -0.541  -0.498  -0.483
 -0.441  -0.410  -0.393  -0.382  -0.329  -0.313  -0.246  -0.202

          Ground-State Mulliken Net Atomic Charges

     Atom                 Charge (a.u.)    Spin (a.u.)
  --------------------------------------------------------
      1 C                    -0.043880      -0.003678
      2 C                    -0.350190       1.201742
      3 C                    -0.114243      -0.270811
      4 C                    -0.095981       0.091874
      5 C                    -0.036030      -0.117807
      6 N                    -0.162906      -0.000040
      7 H                     0.172850      -0.000196
      8 H                     0.146219       0.009179
      9 H                     0.136678       0.082453
     10 H                     0.119088      -0.002578
     11 H                     0.122557       0.004700
     12 C                    -0.055402       0.003651
     13 H                     0.161239       0.001511
  --------------------------------------------------------
  Sum of atomic charges =     0.000000

                    Cartesian Multipole Moments
 -----------------------------------------------------------------
    Charge (ESU x 10^10)
                 0.0000
    Dipole Moment (Debye)
         X       1.4742      Y       0.0046      Z       1.1582
       Tot       1.8748
    Quadrupole Moments (Debye-Ang)
        XX     -37.5542     XY       3.4129     YY     -35.3419
        XZ      -3.2250     YZ       2.8991     ZZ     -45.4674

 Total job time:  56.29s(wall), 112.27s(cpu)
        *  Thank you very much for using Q-Chem.  Have a nice day.  *
