 Q-Chem 5.0, Q-Chem, Inc., Pleasanton, CA (2017)
 Q-Chem 5.0.2 for Intel X86 EM64T Linux

User input:
--------------------------------------------------------------
$molecule
0 2
C        0.9365494245   -0.2311277403   -0.9044965831
C        0.0542700820   -1.3163137069   -0.4253016821
C       -0.9515907892   -1.0698325442    0.4432840154
C       -1.3039882852    0.2907872402    0.8245254913
C       -0.5796326734    1.3444127978    0.3966910979
N        0.6146272261    1.1867516971   -0.3515393777
H        1.2088205827   -0.2431515139   -1.9618392629
H        0.2159822355   -2.3133905239   -0.8276795338
H       -1.5835193305   -1.8836996244    0.7866853253
H       -2.2242438137    0.4651422157    1.3740852909
H       -0.9016721370    2.3736583331    0.5228090867
C        1.7508553954    0.5019596276    0.0714933553
H        2.7635420824    0.8948037426    0.0512827767
$end

$rem
method                b3lyp
basis                 6-31+g(d,p)
unrestricted          true
symmetry              off
sym_ignore            true
incdft                false
incfock               0
scf_convergence       8
thresh                14
jobtype               sp
scf_guess             read
scf_algorithm         diis
max_scf_cycles        100
scf_final_print       1
$end

--------------------------------------------------------------

             Standard Nuclear Orientation (Angstroms)
    I     Atom           X                Y                Z
 ----------------------------------------------------------------
    1      C       0.9365494245    -0.2311277403    -0.9044965831
    2      C       0.0542700820    -1.3163137069    -0.4253016821
    3      C      -0.9515907892    -1.0698325442     0.4432840154
    4      C      -1.3039882852     0.2907872402     0.8245254913
    5      C      -0.5796326734     1.3444127978     0.3966910979
    6      N       0.6146272261     1.1867516971    -0.3515393777
    7      H       1.2088205827    -0.2431515139    -1.9618392629
    8      H       0.2159822355    -2.3133905239    -0.8276795338
    9      H      -1.5835193305    -1.8836996244     0.7866853253
   10      H      -2.2242438137     0.4651422157     1.3740852909
   11      H      -0.9016721370     2.3736583331     0.5228090867
   12      C       1.7508553954     0.5019596276     0.0714933553
   13      H       2.7635420824     0.8948037426     0.0512827767
 ----------------------------------------------------------------

    2    -286.8625600051      2.89E-09 Convergence criterion met
 Total energy in the final basis set = -286.86256001

                    Orbital Energies (a.u.)
 --------------------------------------------------------------

 Alpha MOs
 -- Occupied --
-14.372 -10.241 -10.234 -10.231 -10.207 -10.204 -10.200  -0.994
 -0.818  -0.784  -0.672  -0.648  -0.578  -0.529  -0.503  -0.487
 -0.461  -0.433  -0.400  -0.377  -0.365  -0.319  -0.287  -0.234
 -0.199

 Beta MOs
 -- Occupied --
-14.369 -10.241 -10.231 -10.221 -10.206 -10.204 -10.200  -0.986
 -0.815  -0.781  -0.664  -0.646  -0.565  -0.524  -0.496  -0.484
 -0.452  -0.428  -0.395  -0.374  -0.362  -0.308  -0.281  -0.219

          Ground-State Mulliken Net Atomic Charges

     Atom                 Charge (a.u.)    Spin (a.u.)
  --------------------------------------------------------
      1 C                    -0.073037      -0.086162
      2 C                     0.007727       0.040556
      3 C                    -0.228648      -0.020491
      4 C                     0.093501       0.086712
      5 C                    -0.208076      -0.103084
      6 N                    -0.161973       0.127412
      7 H                     0.142197       0.004294
      8 H                     0.130545      -0.001565
      9 H                     0.126585       0.000552
     10 H                     0.127513       0.002763
     11 H                     0.134876      -0.001254
     12 C                    -0.232436       0.943180
     13 H                     0.141227       0.007085
  --------------------------------------------------------
  Sum of atomic charges =     0.000000

                    Cartesian Multipole Moments
 -----------------------------------------------------------------
    Charge (ESU x 10^10)
                -0.0000
    Dipole Moment (Debye)
         X      -0.3086      Y      -0.7130      Z      -0.2209
       Tot       0.8078
    Quadrupole Moments (Debye-Ang)
        XX     -38.7430     XY      -0.0548     YY     -40.0718
        XZ      -3.3713     YZ       2.2327     ZZ     -42.7454

 Total job time:  9.09s(wall), 11.94s(cpu)
        *  Thank you very much for using Q-Chem.  Have a nice day.  *
