 Q-Chem 5.0, Q-Chem, Inc., Pleasanton, CA (2017)
 Q-Chem 5.0.2 for Intel X86 EM64T Linux

User input:
--------------------------------------------------------------
$molecule
0 2
C        1.3395490851    0.8947094440   -0.5127749546
C        0.2989461656   -1.4056986771   -0.2409666029
C       -0.9091642169   -1.0963424901    0.3089704339
C       -1.4029826532    0.2191536682    0.6281938981
C       -0.7719831603    1.4352510770    0.4488347516
N        0.4361745857    1.7894371059   -0.0498861750
H        2.2497103551    1.3812114973   -0.8706793694
H        0.5113953700   -2.4583136581   -0.4171916891
H       -1.5802336948   -1.9224424741    0.5354467353
H       -2.3972359443    0.2656751257    1.0659647182
H       -1.3513944638    2.3038717213    0.7694081809
C        1.3387056676   -0.4837671890   -0.6205212429
H        2.2385129037   -0.9227451512   -1.0447986839
****
C        1.5353904196    0.3203725279   -0.9060308710
C       -0.0504633254   -2.0308683785    0.2795732484
C       -1.1766597543   -1.3346506213    0.3477964270
C       -1.3597481800    0.1074805293    0.4994871130
C       -0.4058463085    1.0622945877    0.4895092982
N        0.9861760057    0.8392877502    0.4076947497
H        1.6077844650   -0.6289533964   -1.4067596864
H        0.1944307485   -3.0840758907    0.2125290687
H       -2.1141468270   -1.9067715996    0.3064077822
H       -2.3833698193    0.4382355565    0.6561995529
H       -0.6879236149    2.1012633177    0.6629298808
C        1.7280724312    1.5656431195   -0.6847579633
H        2.1263037593    2.5507424975   -0.8645786003
$end

$rem
method                b3lyp
basis                 6-31g(d)
unrestricted          true
symmetry              off
sym_ignore            true
incdft                false
incfock               0
scf_convergence       8
thresh                14
jobtype               fsm
scf_guess             core
scf_guess_mix         5
scf_algorithm         diis_gdm
max_scf_cycles        300
fsm_nnode             21
fsm_ngrad             6
fsm_mode              2
fsm_opt_mode          2
$end

--------------------------------------------------------------

   30    -286.9243424354      7.37E-09 Convergence criterion met
 Total energy in the final basis set = -286.92434244
   30    -286.7239574254      7.24E-09 Convergence criterion met
 Total energy in the final basis set = -286.72395743
   30    -286.9098578360      9.59E-09 Convergence criterion met
 Total energy in the final basis set = -286.90985784
   30    -286.9148911046      5.24E-09 Convergence criterion met
 Total energy in the final basis set = -286.91489110
   32    -286.7199647413      5.14E-09 Convergence criterion met
 Total energy in the final basis set = -286.71996474
   33    -286.7200550795      9.85E-10 Convergence criterion met
 Total energy in the final basis set = -286.72005508
   35    -286.7155504521      9.19E-09 Convergence criterion met
 Total energy in the final basis set = -286.71555045
   32    -286.7189929272      4.02E-09 Convergence criterion met
 Total energy in the final basis set = -286.65575201
   37    -286.6555990881      3.12E-09 Convergence criterion met
 Total energy in the final basis set = -286.65559909
   37    -286.6556759831      4.34E-09 Convergence criterion met
 Total energy in the final basis set = -286.65567598
   37    -286.6556779176      3.07E-09 Convergence criterion met
 Total energy in the final basis set = -286.65567792
   37    -286.6555821976      3.89E-09 Convergence criterion met
 Total energy in the final basis set = -286.65558220
   37    -286.6557753973      3.13E-09 Convergence criterion met
 Total energy in the final basis set = -286.65577540
   35    -286.6555006774      9.85E-09 Convergence criterion met
 Total energy in the final basis set = -286.65550068
   37    -286.6558604991      3.35E-09 Convergence criterion met
 Total energy in the final basis set = -286.65586050

                    Orbital Energies (a.u.)
 --------------------------------------------------------------

 Alpha MOs
 -- Occupied --
-14.353 -10.261 -10.255 -10.216 -10.176 -10.175 -10.160  -0.979
 -0.807  -0.744  -0.660  -0.600  -0.584  -0.538  -0.497  -0.464
 -0.420  -0.410  -0.388  -0.368  -0.350  -0.295  -0.218  -0.204
 -0.158

 Beta MOs
 -- Occupied --
-14.353 -10.261 -10.255 -10.217 -10.177 -10.159 -10.159  -0.978
 -0.806  -0.734  -0.651  -0.599  -0.578  -0.530  -0.490  -0.458
 -0.417  -0.404  -0.382  -0.363  -0.347  -0.291  -0.214  -0.152

          Ground-State Mulliken Net Atomic Charges

     Atom                 Charge (a.u.)    Spin (a.u.)
  --------------------------------------------------------
      1 C                     0.047730       0.007396
      2 C                    -0.253268       1.019071
      3 C                    -0.136307      -0.145624
      4 C                    -0.168071       0.083128
      5 C                     0.032118      -0.055863
      6 N                    -0.398988       0.006841
      7 H                     0.198392       0.001296
      8 H                     0.130250       0.011423
      9 H                     0.125497       0.074357
     10 H                     0.113995      -0.004381
     11 H                     0.134245       0.005825
     12 C                    -0.028773      -0.002596
     13 H                     0.203180      -0.000873
  --------------------------------------------------------
  Sum of atomic charges =     0.000000

                    Cartesian Multipole Moments
 -----------------------------------------------------------------
    Charge (ESU x 10^10)
                 0.0000
    Dipole Moment (Debye)
         X       1.4449      Y      -0.0019      Z      -1.4455
       Tot       2.0438
    Quadrupole Moments (Debye-Ang)
        XX     -34.0500     XY       0.0065     YY     -40.6389
        XZ      -1.1989     YZ       1.9662     ZZ     -40.3955

             Standard Nuclear Orientation (Angstroms)
    I     Atom           X                Y                Z
 ----------------------------------------------------------------
    1      C       1.1493045402     0.6308558999    -1.2323093714
    2      C      -0.0098309048    -1.8933828448     0.2372522854
    3      C      -1.1726106072    -1.2447231542     0.3187836365
    4      C      -1.4446847978     0.1722064088     0.5345120025
    5      C      -0.5142637702     1.1874223704     0.5906312879
    6      N       0.7398416585     1.0870977917     0.0352180464
    7      H       0.7549760958     0.0388727544    -2.0515795574
    8      H       0.2074036234    -2.9518470615     0.1174985496
    9      H      -2.0764771635    -1.8748754000     0.3314822689
   10      H      -2.4725810317     0.4188146132     0.7794072720
   11      H      -0.7264907012     2.1002466433     1.1535790173
   12      C       2.1907060328     0.9907670012    -0.5499296729
   13      H       3.2297613453     0.9847523758    -0.2546193308
 ----------------------------------------------------------------

 Total job time:  7684.57s(wall), 11631.99s(cpu)
        *  Thank you very much for using Q-Chem.  Have a nice day.  *
