 Q-Chem 5.0, Q-Chem, Inc., Pleasanton, CA (2017)
 Q-Chem 5.0.2 for Intel X86 EM64T Linux

User input:
--------------------------------------------------------------
$molecule
0 2
C        0.9308829380   -0.2645786204   -0.8893293198
C        0.0490690722   -1.3544338129   -0.4057510994
C       -0.9883432744   -1.1003607774    0.4197341052
C       -1.3287551381    0.2626243010    0.8125798074
C       -0.5864118795    1.3101066449    0.4048251031
N        0.5921455648    1.1485678945   -0.3696661397
H        1.2001523372   -0.2976253333   -1.9473455336
H        0.2304475044   -2.3569768778   -0.7857254581
H       -1.6422585676   -1.9080413921    0.7352738905
H       -2.2355788880    0.4417400371    1.3820904634
H       -0.8692406812    2.3425872607    0.5845579002
C        1.7511474176    0.5007360152    0.0583284375
H        2.7517979090    0.9218620438    0.0103542792
$end

$rem
method                b3lyp
basis                 6-31+g(d,p)
unrestricted          true
symmetry              off
sym_ignore            true
incdft                false
incfock               0
scf_convergence       8
thresh                14
jobtype               opt
scf_guess             read
scf_algorithm         diis
max_scf_cycles        100
geom_opt_max_cycles   300
$end

--------------------------------------------------------------

   19    -286.8623127782      8.61E-09 Convergence criterion met
 Total energy in the final basis set = -286.86231278
   13    -286.8624747824      2.95E-09 Convergence criterion met
 Total energy in the final basis set = -286.86247478
   13    -286.8625348323      2.90E-09 Convergence criterion met
 Total energy in the final basis set = -286.86253483
   12    -286.8625443615      4.13E-09 Convergence criterion met
 Total energy in the final basis set = -286.86254436
   12    -286.8625533446      5.89E-09 Convergence criterion met
 Total energy in the final basis set = -286.86255334
   11    -286.8625564606      3.90E-09 Convergence criterion met
 Total energy in the final basis set = -286.86255646
   11    -286.8625592402      8.37E-09 Convergence criterion met
 Total energy in the final basis set = -286.86255924

             Standard Nuclear Orientation (Angstroms)
    I     Atom           X                Y                Z
 ----------------------------------------------------------------
    1      C       0.9253997564    -0.2583425570    -0.9037330111
    2      C       0.0431204139    -1.3435285236    -0.4245381101
    3      C      -0.9627404573    -1.0970473609     0.4440475874
    4      C      -1.3151379533     0.2635724235     0.8252890633
    5      C      -0.5907823415     1.3171979811     0.3974546699
    6      N       0.6034775580     1.1595368804    -0.3507758057
    7      H       1.1976709146    -0.2703663306    -1.9610756909
    8      H       0.2048325674    -2.3406053406    -0.8269159618
    9      H      -1.5946689986    -1.9109144411     0.7874488973
   10      H      -2.2353934818     0.4379273990     1.3748488629
   11      H      -0.9128218051     2.3464435164     0.5235726587
   12      C       1.7397057273     0.4747448109     0.0722569273
   13      H       2.7523924143     0.8675889259     0.0520463487
 ----------------------------------------------------------------

   11    -286.8625600051      2.97E-09 Convergence criterion met
 Total energy in the final basis set = -286.86256001
 Final energy is   -286.862560005116
 **  OPTIMIZATION CONVERGED  **

                    Orbital Energies (a.u.)
 --------------------------------------------------------------

 Alpha MOs
 -- Occupied --
-14.372 -10.241 -10.234 -10.231 -10.207 -10.204 -10.200  -0.994
 -0.818  -0.784  -0.672  -0.648  -0.578  -0.529  -0.503  -0.487
 -0.461  -0.433  -0.400  -0.377  -0.365  -0.319  -0.287  -0.234
 -0.199

 Beta MOs
 -- Occupied --
-14.369 -10.241 -10.231 -10.221 -10.206 -10.204 -10.200  -0.986
 -0.815  -0.781  -0.664  -0.646  -0.565  -0.524  -0.496  -0.484
 -0.452  -0.428  -0.395  -0.374  -0.362  -0.308  -0.281  -0.219

          Ground-State Mulliken Net Atomic Charges

     Atom                 Charge (a.u.)    Spin (a.u.)
  --------------------------------------------------------
      1 C                    -0.073037      -0.086165
      2 C                     0.007727       0.040569
      3 C                    -0.228647      -0.020501
      4 C                     0.093501       0.086737
      5 C                    -0.208075      -0.103111
      6 N                    -0.161974       0.127415
      7 H                     0.142197       0.004294
      8 H                     0.130545      -0.001565
      9 H                     0.126585       0.000553
     10 H                     0.127513       0.002761
     11 H                     0.134876      -0.001251
     12 C                    -0.232437       0.943179
     13 H                     0.141227       0.007085
  --------------------------------------------------------
  Sum of atomic charges =     0.000000

                    Cartesian Multipole Moments
 -----------------------------------------------------------------
    Charge (ESU x 10^10)
                -0.0000
    Dipole Moment (Debye)
         X      -0.3086      Y      -0.7130      Z      -0.2209
       Tot       0.8078
    Quadrupole Moments (Debye-Ang)
        XX     -38.7362     XY      -0.0385     YY     -40.0330
        XZ      -3.3691     YZ       2.2382     ZZ     -42.7457

 Total job time:  291.68s(wall), 659.05s(cpu)
        *  Thank you very much for using Q-Chem.  Have a nice day.  *
