 Q-Chem 5.0, Q-Chem, Inc., Pleasanton, CA (2017)
 Q-Chem 5.0.2 for Intel X86 EM64T Linux

User input:
--------------------------------------------------------------
$molecule
0 2
C        1.5336459567    0.3216897092   -0.9094403748
C       -0.0491294848   -2.0293657852    0.2818656740
C       -1.1767736480   -1.3349723737    0.3493905167
C       -1.3609226921    0.1072737658    0.4979806226
C       -0.4070581013    1.0618019368    0.4871228615
N        0.9845908033    0.8367175807    0.4055343678
H        1.6026508419   -0.6265047528   -1.4128822237
H        0.1965296989   -3.0826993469    0.2159390351
H       -2.1133099855   -1.9084212119    0.3079462464
H       -2.3843576097    0.4380348107    0.6558489079
H       -0.6874459602    2.1011609889    0.6609662928
C        1.7300491455    1.5653256729   -0.6826268898
H        2.1315310352    2.5499590055   -0.8576450367
$end

$rem
method                b3lyp
basis                 6-31g(d)
unrestricted          true
symmetry              off
sym_ignore            true
incdft                false
incfock               0
scf_convergence       8
thresh                14
jobtype               opt
scf_guess             core
scf_guess_mix         5
scf_algorithm         diis
max_scf_cycles        100
geom_opt_max_cycles   300
$end

--------------------------------------------------------------

   23    -286.7239556814      7.43E-09 Convergence criterion met
 Total energy in the final basis set = -286.72395568
   17    -286.7239569312      4.57E-09 Convergence criterion met
 Total energy in the final basis set = -286.72395693

             Standard Nuclear Orientation (Angstroms)
    I     Atom           X                Y                Z
 ----------------------------------------------------------------
    1      C       1.5353904196     0.3203725279    -0.9060308710
    2      C      -0.0504633254    -2.0308683785     0.2795732484
    3      C      -1.1766597543    -1.3346506213     0.3477964270
    4      C      -1.3597481800     0.1074805293     0.4994871130
    5      C      -0.4058463085     1.0622945877     0.4895092982
    6      N       0.9861760057     0.8392877502     0.4076947497
    7      H       1.6077844650    -0.6289533964    -1.4067596864
    8      H       0.1944307485    -3.0840758907     0.2125290687
    9      H      -2.1141468270    -1.9067715996     0.3064077822
   10      H      -2.3833698193     0.4382355565     0.6561995529
   11      H      -0.6879236149     2.1012633177     0.6629298808
   12      C       1.7280724312     1.5656431195    -0.6847579633
   13      H       2.1263037593     2.5507424975    -0.8645786003
 ----------------------------------------------------------------

   17    -286.7239573876      4.64E-09 Convergence criterion met
 Total energy in the final basis set = -286.72395739
 Final energy is   -286.723957387621
 **  OPTIMIZATION CONVERGED  **

                    Orbital Energies (a.u.)
 --------------------------------------------------------------

 Alpha MOs
 -- Occupied --
-14.350 -10.239 -10.238 -10.204 -10.196 -10.191 -10.178  -0.969
 -0.799  -0.745  -0.670  -0.596  -0.586  -0.535  -0.494  -0.479
 -0.432  -0.409  -0.381  -0.374  -0.318  -0.302  -0.238  -0.222
 -0.192

 Beta MOs
 -- Occupied --
-14.350 -10.239 -10.238 -10.205 -10.192 -10.181 -10.177  -0.969
 -0.795  -0.736  -0.662  -0.596  -0.577  -0.530  -0.486  -0.473
 -0.429  -0.398  -0.381  -0.371  -0.315  -0.300  -0.233  -0.187

          Ground-State Mulliken Net Atomic Charges

     Atom                 Charge (a.u.)    Spin (a.u.)
  --------------------------------------------------------
      1 C                     0.010017       0.003174
      2 C                    -0.225975       1.056959
      3 C                    -0.133177      -0.163821
      4 C                    -0.116815       0.069420
      5 C                     0.008752      -0.059177
      6 N                    -0.388641      -0.001594
      7 H                     0.179905       0.002072
      8 H                     0.153429       0.005551
      9 H                     0.139371       0.083428
     10 H                     0.122728      -0.002510
     11 H                     0.128708       0.004655
     12 C                    -0.052024       0.000049
     13 H                     0.173722       0.001796
  --------------------------------------------------------
  Sum of atomic charges =     0.000000

                    Cartesian Multipole Moments
 -----------------------------------------------------------------
    Charge (ESU x 10^10)
                 0.0000
    Dipole Moment (Debye)
         X       0.0308      Y       0.6091      Z      -1.8711
       Tot       1.9680
    Quadrupole Moments (Debye-Ang)
        XX     -37.7394     XY       1.8497     YY     -32.7577
        XZ      -4.0378     YZ      -0.1899     ZZ     -43.2983

 Total job time:  130.85s(wall), 168.36s(cpu)
        *  Thank you very much for using Q-Chem.  Have a nice day.  *
