 Q-Chem 5.0, Q-Chem, Inc., Pleasanton, CA (2017)
 Q-Chem 5.0.2 for Intel X86 EM64T Linux

User input:
--------------------------------------------------------------
$molecule
0 2
C        1.3391982006    0.8949661606   -0.5132029640
C        0.2986262970   -1.4060198555   -0.2409339399
C       -0.9094341894   -1.0965453261    0.3087215996
C       -1.4023215397    0.2190729393    0.6293318866
C       -0.7723250425    1.4351560426    0.4481363436
N        0.4355386852    1.7898203683   -0.0521552341
H        2.2496294514    1.3812045761   -0.8709498022
H        0.5110239971   -2.4584455753   -0.4185099411
H       -1.5814082475   -1.9223273493    0.5336194848
H       -2.3961128600    0.2657600052    1.0682431779
H       -1.3513514400    2.3037290084    0.7693430691
C        1.3396267696   -0.4842078085   -0.6180921256
H        2.2393099178   -0.9221631860   -1.0435515545
$end

$rem
method                b3lyp
basis                 6-31g(d)
unrestricted          true
symmetry              off
sym_ignore            true
incdft                false
incfock               0
scf_convergence       8
thresh                14
jobtype               opt
scf_guess             core
scf_guess_mix         5
scf_algorithm         diis
max_scf_cycles        100
geom_opt_max_cycles   300
$end

--------------------------------------------------------------

   23    -286.9243409348      3.95E-09 Convergence criterion met
 Total energy in the final basis set = -286.92434093
   18    -286.9243420142      2.98E-09 Convergence criterion met
 Total energy in the final basis set = -286.92434201

             Standard Nuclear Orientation (Angstroms)
    I     Atom           X                Y                Z
 ----------------------------------------------------------------
    1      C       1.3395490851     0.8947094440    -0.5127749546
    2      C       0.2989461656    -1.4056986771    -0.2409666029
    3      C      -0.9091642169    -1.0963424901     0.3089704339
    4      C      -1.4029826532     0.2191536682     0.6281938981
    5      C      -0.7719831603     1.4352510770     0.4488347516
    6      N       0.4361745857     1.7894371059    -0.0498861750
    7      H       2.2497103551     1.3812114973    -0.8706793694
    8      H       0.5113953700    -2.4583136581    -0.4171916891
    9      H      -1.5802336948    -1.9224424741     0.5354467353
   10      H      -2.3972359443     0.2656751257     1.0659647182
   11      H      -1.3513944638     2.3038717213     0.7694081809
   12      C       1.3387056676    -0.4837671890    -0.6205212429
   13      H       2.2385129037    -0.9227451512    -1.0447986839
 ----------------------------------------------------------------

   18    -286.9243424354      2.95E-09 Convergence criterion met
 Total energy in the final basis set = -286.92434244
 Final energy is   -286.924342435400
 **  OPTIMIZATION CONVERGED  **

                    Orbital Energies (a.u.)
 --------------------------------------------------------------

 Alpha MOs
 -- Occupied --
-14.322 -10.232 -10.232 -10.212 -10.211 -10.201 -10.200  -0.922
 -0.818  -0.784  -0.693  -0.667  -0.551  -0.537  -0.518  -0.449
 -0.439  -0.414  -0.394  -0.386  -0.349  -0.322  -0.299  -0.251
 -0.162

 Beta MOs
 -- Occupied --
-14.314 -10.233 -10.233 -10.210 -10.210 -10.196 -10.196  -0.911
 -0.809  -0.777  -0.681  -0.665  -0.546  -0.535  -0.514  -0.447
 -0.438  -0.411  -0.383  -0.373  -0.348  -0.295  -0.276  -0.241

          Ground-State Mulliken Net Atomic Charges

     Atom                 Charge (a.u.)    Spin (a.u.)
  --------------------------------------------------------
      1 C                     0.035701      -0.114166
      2 C                    -0.110972       0.090487
      3 C                    -0.111625       0.096994
      4 C                    -0.131009       0.344323
      5 C                     0.035118      -0.111051
      6 N                    -0.423231       0.386972
      7 H                     0.142625       0.003478
      8 H                     0.141968      -0.006481
      9 H                     0.141907      -0.006792
     10 H                     0.134363      -0.018209
     11 H                     0.142623       0.003325
     12 C                    -0.131802       0.349574
     13 H                     0.134335      -0.018454
  --------------------------------------------------------
  Sum of atomic charges =    -0.000000

                    Cartesian Multipole Moments
 -----------------------------------------------------------------
    Charge (ESU x 10^10)
                -0.0000
    Dipole Moment (Debye)
         X      -0.5300      Y      -2.1791      Z       0.0612
       Tot       2.2435
    Quadrupole Moments (Debye-Ang)
        XX     -36.1708     XY      -1.5948     YY     -41.9468
        XZ      -3.2532     YZ       0.8096     ZZ     -41.8816

 Total job time:  158.62s(wall), 176.87s(cpu)
        *  Thank you very much for using Q-Chem.  Have a nice day.  *
