 Q-Chem 5.0, Q-Chem, Inc., Pleasanton, CA (2017)
 Q-Chem 5.0.2 for Intel X86 EM64T Linux

User input:
--------------------------------------------------------------
$molecule
0 2
C        1.3702042856    0.1722898742   -1.0234739736
C       -0.2738228105   -1.8770960671   -0.3420086374
C       -1.2037652143   -1.2372731909    0.3436083309
C       -1.2413221777    0.1703423799    0.7549835108
C       -0.4736479440    1.2122643190    0.3786350994
N        0.5103073309    1.3547264949   -0.6357420324
H        1.3776119758   -0.5803976259   -1.7886303499
H       -0.1281727675   -2.8952727241   -0.6819342112
H       -2.0659721450   -1.8261351550    0.6866353672
H       -2.0151576671    0.4040006649    1.4833317200
H       -0.6763847410    2.1787575536    0.8400834099
C        1.9332514306    1.0405319344   -0.2613179487
H        2.7419247638    1.5294689403    0.2557561490
$end

$rem
method                b3lyp
basis                 6-31+g(d,p)
unrestricted          true
symmetry              off
sym_ignore            true
incdft                false
incfock               0
scf_convergence       8
thresh                14
jobtype               ts
scf_guess             read
scf_algorithm         diis
max_scf_cycles        100
geom_opt_max_cycles   500
geom_opt_dmax         100
geom_opt_tol_gradient 10
geom_opt_hessian      read
$end

--------------------------------------------------------------

    2    -286.7447952819      8.47E-10 Convergence criterion met
 Total energy in the final basis set = -286.74479528
   15    -286.7448289133      4.90E-09 Convergence criterion met
 Total energy in the final basis set = -286.74482891
   14    -286.7448426358      9.86E-09 Convergence criterion met
 Total energy in the final basis set = -286.74484264
   14    -286.7448415776      9.55E-09 Convergence criterion met
 Total energy in the final basis set = -286.74484158
   14    -286.7448407551      9.09E-09 Convergence criterion met
 Total energy in the final basis set = -286.74484076
   13    -286.7448422318      8.34E-09 Convergence criterion met
 Total energy in the final basis set = -286.74484223

             Standard Nuclear Orientation (Angstroms)
    I     Atom           X                Y                Z
 ----------------------------------------------------------------
    1      C       1.3611836815     0.1680363770    -1.0293631840
    2      C      -0.2474969814    -1.8876034479    -0.2865789766
    3      C      -1.2186390614    -1.2341157614     0.3283807345
    4      C      -1.2463752393     0.1680196696     0.7636127767
    5      C      -0.4677649886     1.2090109211     0.4013819772
    6      N       0.5096395636     1.3458711264    -0.6195521563
    7      H       1.3618705710    -0.5668181527    -1.8107032294
    8      H      -0.0875687412    -2.9027572459    -0.6270603305
    9      H      -2.1198350733    -1.8066889597     0.5868523390
   10      H      -2.0203588229     0.3990997780     1.4918627763
   11      H      -0.6587381753     2.1718630833     0.8732171520
   12      C       1.9346009282     1.0424295691    -0.2756500226
   13      H       2.7545366587     1.5398604413     0.2135265779
 ----------------------------------------------------------------

   10    -286.7448422332      5.20E-09 Convergence criterion met
 Total energy in the final basis set = -286.74484223
 Final energy is   -286.744842233183
 **  OPTIMIZATION CONVERGED  **

                    Orbital Energies (a.u.)
 --------------------------------------------------------------

 Alpha MOs
 -- Occupied --
-14.365 -10.251 -10.247 -10.219 -10.213 -10.208 -10.194  -0.982
 -0.811  -0.761  -0.684  -0.604  -0.600  -0.543  -0.498  -0.494
 -0.446  -0.426  -0.389  -0.380  -0.336  -0.317  -0.252  -0.229
 -0.206

 Beta MOs
 -- Occupied --
-14.365 -10.249 -10.248 -10.219 -10.209 -10.199 -10.193  -0.982
 -0.807  -0.753  -0.676  -0.601  -0.590  -0.538  -0.491  -0.486
 -0.442  -0.416  -0.386  -0.378  -0.333  -0.314  -0.239  -0.205

          Ground-State Mulliken Net Atomic Charges

     Atom                 Charge (a.u.)    Spin (a.u.)
  --------------------------------------------------------
      1 C                    -0.213660      -0.154547
      2 C                    -0.240180       1.048059
      3 C                    -0.159349      -0.208883
      4 C                     0.010382       0.063474
      5 C                    -0.166161      -0.047086
      6 N                    -0.145157       0.009509
      7 H                     0.173929       0.005436
      8 H                     0.146644       0.009361
      9 H                     0.138289       0.077011
     10 H                     0.119625      -0.000575
     11 H                     0.125069       0.003495
     12 C                     0.049686       0.202661
     13 H                     0.160881      -0.007915
  --------------------------------------------------------
  Sum of atomic charges =    -0.000000

                    Cartesian Multipole Moments
 -----------------------------------------------------------------
    Charge (ESU x 10^10)
                -0.0000
    Dipole Moment (Debye)
         X       1.0386      Y      -0.8629      Z       0.5073
       Tot       1.4424
    Quadrupole Moments (Debye-Ang)
        XX     -36.8214     XY       2.5803     YY     -40.3378
        XZ      -2.3435     YZ       5.3172     ZZ     -42.7631

 Total job time:  259.96s(wall), 518.72s(cpu)
        *  Thank you very much for using Q-Chem.  Have a nice day.  *
