 Q-Chem 5.0, Q-Chem, Inc., Pleasanton, CA (2017)
 Q-Chem 5.0.2 for Intel X86 EM64T Linux

User input:
--------------------------------------------------------------
$molecule
0 2
C        1.1493045402    0.6308558999   -1.2323093714
C       -0.0098309048   -1.8933828448    0.2372522854
C       -1.1726106072   -1.2447231542    0.3187836365
C       -1.4446847978    0.1722064088    0.5345120025
C       -0.5142637702    1.1874223704    0.5906312879
N        0.7398416585    1.0870977917    0.0352180464
H        0.7549760958    0.0388727544   -2.0515795574
H        0.2074036234   -2.9518470615    0.1174985496
H       -2.0764771635   -1.8748754000    0.3314822689
H       -2.4725810317    0.4188146132    0.7794072720
H       -0.7264907012    2.1002466433    1.1535790173
C        2.1907060328    0.9907670012   -0.5499296729
H        3.2297613453    0.9847523758   -0.2546193308
$end

$rem
method                b3lyp
basis                 6-31g(d)
unrestricted          true
symmetry              off
sym_ignore            true
incdft                false
incfock               0
scf_convergence       6
thresh                14
jobtype               sp
scf_guess             read
scf_algorithm         diis
max_scf_cycles        100
stability_analysis    true
max_cis_cycles        100
cis_n_roots           4
$end

--------------------------------------------------------------

             Standard Nuclear Orientation (Angstroms)
    I     Atom           X                Y                Z
 ----------------------------------------------------------------
    1      C       1.1493045402     0.6308558999    -1.2323093714
    2      C      -0.0098309048    -1.8933828448     0.2372522854
    3      C      -1.1726106072    -1.2447231542     0.3187836365
    4      C      -1.4446847978     0.1722064088     0.5345120025
    5      C      -0.5142637702     1.1874223704     0.5906312879
    6      N       0.7398416585     1.0870977917     0.0352180464
    7      H       0.7549760958     0.0388727544    -2.0515795574
    8      H       0.2074036234    -2.9518470615     0.1174985496
    9      H      -2.0764771635    -1.8748754000     0.3314822689
   10      H      -2.4725810317     0.4188146132     0.7794072720
   11      H      -0.7264907012     2.1002466433     1.1535790173
   12      C       2.1907060328     0.9907670012    -0.5499296729
   13      H       3.2297613453     0.9847523758    -0.2546193308
 ----------------------------------------------------------------

    2    -286.6678789947      3.75E-09 Convergence criterion met
 Total energy in the final basis set = -286.66787899

         TDDFT/TDA Excitation Energies
 ---------------------------------------------------

 Excited state   1: excitation energy (eV) =    1.2607
 Total energy for state  1:                  -286.62154939 au
    <S**2>     :  1.1339
    Trans. Mom.: -0.1413 X   0.1189 Y  -0.0695 Z
    Strength   :     0.0012026710
    S(  1) --> V(  1) amplitude = -0.2012 alpha
    D( 24) --> S(  1) amplitude =  0.9436 beta

 Excited state   2: excitation energy (eV) =    1.5774
 Total energy for state  2:                  -286.60990993 au
    <S**2>     :  2.3689
    Trans. Mom.:  0.0012 X  -0.0983 Y   0.0866 Z
    Strength   :     0.0006633427
    S(  1) --> V(  1) amplitude = -0.6400 alpha
    D( 24) --> S(  1) amplitude = -0.2298 beta
    D( 24) --> V(  1) amplitude =  0.6836 beta

 Excited state   3: excitation energy (eV) =    2.3358
 Total energy for state  3:                  -286.58203993 au
    <S**2>     :  2.6503
    Trans. Mom.: -0.0487 X  -0.0283 Y   0.0411 Z
    Strength   :     0.0002779427
    D( 23) --> V(  1) amplitude = -0.1724 alpha
    S(  1) --> V(  2) amplitude =  0.6594 alpha
    D( 23) --> S(  1) amplitude = -0.1816 beta
    D( 24) --> V(  2) amplitude =  0.6685 beta

 Excited state   4: excitation energy (eV) =    2.6641
 Total energy for state  4:                  -286.56997692 au
    <S**2>     :  0.7913
    Trans. Mom.: -0.6884 X  -0.5173 Y   0.0659 Z
    Strength   :     0.0486753401
    S(  1) --> V(  1) amplitude =  0.6661 alpha
    S(  1) --> V(  2) amplitude = -0.2394 alpha
    D( 24) --> V(  1) amplitude =  0.6256 beta
    D( 24) --> V(  2) amplitude =  0.1621 beta

 ---------------------------------------------------

                    Orbital Energies (a.u.)
 --------------------------------------------------------------

 Alpha MOs
 -- Occupied --
-14.356 -10.261 -10.259 -10.220 -10.180 -10.179 -10.163  -0.979
 -0.801  -0.747  -0.665  -0.604  -0.586  -0.543  -0.491  -0.464
 -0.420  -0.406  -0.400  -0.366  -0.347  -0.295  -0.224  -0.215
 -0.153

 Beta MOs
 -- Occupied --
-14.356 -10.263 -10.259 -10.221 -10.180 -10.165 -10.162  -0.980
 -0.800  -0.738  -0.655  -0.605  -0.581  -0.535  -0.484  -0.457
 -0.418  -0.403  -0.394  -0.362  -0.345  -0.291  -0.220  -0.148

          Ground-State Mulliken Net Atomic Charges

     Atom                 Charge (a.u.)    Spin (a.u.)
  --------------------------------------------------------
      1 C                     0.065139       0.050146
      2 C                    -0.260683       1.066598
      3 C                    -0.130197      -0.163550
      4 C                    -0.166371       0.099127
      5 C                     0.028704      -0.064400
      6 N                    -0.404598      -0.003238
      7 H                     0.198932      -0.001008
      8 H                     0.139591       0.007670
      9 H                     0.131455       0.081581
     10 H                     0.114455      -0.005018
     11 H                     0.129430       0.004842
     12 C                    -0.047433      -0.074016
     13 H                     0.201576       0.001266
  --------------------------------------------------------
  Sum of atomic charges =     0.000000

                    Cartesian Multipole Moments
 -----------------------------------------------------------------
    Charge (ESU x 10^10)
                 0.0000
    Dipole Moment (Debye)
         X       1.5846      Y       0.3260      Z      -1.5622
       Tot       2.2489
    Quadrupole Moments (Debye-Ang)
        XX     -33.3540     XY       1.6247     YY     -40.3666
        XZ      -1.6923     YZ       1.6092     ZZ     -40.2418

 Total job time:  125.28s(wall), 79.60s(cpu)
        *  Thank you very much for using Q-Chem.  Have a nice day.  *
