 Q-Chem 5.0, Q-Chem, Inc., Pleasanton, CA (2017)
 Q-Chem 5.0.2 for Intel X86 EM64T Linux

User input:
--------------------------------------------------------------
$molecule
0 2
C        1.1493045402    0.6308558999   -1.2323093714
C       -0.0098309048   -1.8933828448    0.2372522854
C       -1.1726106072   -1.2447231542    0.3187836365
C       -1.4446847978    0.1722064088    0.5345120025
C       -0.5142637702    1.1874223704    0.5906312879
N        0.7398416585    1.0870977917    0.0352180464
H        0.7549760958    0.0388727544   -2.0515795574
H        0.2074036234   -2.9518470615    0.1174985496
H       -2.0764771635   -1.8748754000    0.3314822689
H       -2.4725810317    0.4188146132    0.7794072720
H       -0.7264907012    2.1002466433    1.1535790173
C        2.1907060328    0.9907670012   -0.5499296729
H        3.2297613453    0.9847523758   -0.2546193308
$end

$rem
method                b3lyp
basis                 6-31g(d)
unrestricted          true
symmetry              off
sym_ignore            true
incdft                false
incfock               0
scf_convergence       8
thresh                14
jobtype               freq
scf_guess             read
scf_algorithm         diis
max_scf_cycles        100
$end

--------------------------------------------------------------

             Standard Nuclear Orientation (Angstroms)
    I     Atom           X                Y                Z
 ----------------------------------------------------------------
    1      C       1.1493045402     0.6308558999    -1.2323093714
    2      C      -0.0098309048    -1.8933828448     0.2372522854
    3      C      -1.1726106072    -1.2447231542     0.3187836365
    4      C      -1.4446847978     0.1722064088     0.5345120025
    5      C      -0.5142637702     1.1874223704     0.5906312879
    6      N       0.7398416585     1.0870977917     0.0352180464
    7      H       0.7549760958     0.0388727544    -2.0515795574
    8      H       0.2074036234    -2.9518470615     0.1174985496
    9      H      -2.0764771635    -1.8748754000     0.3314822689
   10      H      -2.4725810317     0.4188146132     0.7794072720
   11      H      -0.7264907012     2.1002466433     1.1535790173
   12      C       2.1907060328     0.9907670012    -0.5499296729
   13      H       3.2297613453     0.9847523758    -0.2546193308
 ----------------------------------------------------------------

    2    -286.6678789948      1.90E-09 Convergence criterion met
 Total energy in the final basis set = -286.66787899

                    Orbital Energies (a.u.)
 --------------------------------------------------------------

 Alpha MOs
 -- Occupied --
-14.356 -10.261 -10.259 -10.220 -10.180 -10.179 -10.163  -0.979
 -0.801  -0.747  -0.665  -0.604  -0.586  -0.543  -0.491  -0.464
 -0.420  -0.406  -0.400  -0.366  -0.347  -0.295  -0.224  -0.215
 -0.153

 Beta MOs
 -- Occupied --
-14.356 -10.263 -10.259 -10.221 -10.180 -10.165 -10.162  -0.980
 -0.800  -0.738  -0.655  -0.605  -0.581  -0.535  -0.484  -0.457
 -0.418  -0.403  -0.394  -0.362  -0.345  -0.291  -0.220  -0.148

          Ground-State Mulliken Net Atomic Charges

     Atom                 Charge (a.u.)    Spin (a.u.)
  --------------------------------------------------------
      1 C                     0.065139       0.050142
      2 C                    -0.260683       1.066598
      3 C                    -0.130197      -0.163550
      4 C                    -0.166371       0.099128
      5 C                     0.028704      -0.064401
      6 N                    -0.404598      -0.003238
      7 H                     0.198932      -0.001008
      8 H                     0.139591       0.007670
      9 H                     0.131455       0.081581
     10 H                     0.114455      -0.005018
     11 H                     0.129430       0.004842
     12 C                    -0.047433      -0.074012
     13 H                     0.201576       0.001266
  --------------------------------------------------------
  Sum of atomic charges =     0.000000

                    Cartesian Multipole Moments
 -----------------------------------------------------------------
    Charge (ESU x 10^10)
                 0.0000
    Dipole Moment (Debye)
         X       1.5846      Y       0.3260      Z      -1.5622
       Tot       2.2489
    Quadrupole Moments (Debye-Ang)
        XX     -33.3540     XY       1.6247     YY     -40.3666
        XZ      -1.6923     YZ       1.6092     ZZ     -40.2418

 Frequency:      -449.67                -352.55                 125.40
 Force Cnst:      1.0803                 0.1673                 0.0434
 Red. Mass:       9.0683                 2.2840                 4.6807
 IR Intens:       20.376                239.418                  2.331
 Frequency:       132.81                 165.74                 235.59
 Force Cnst:      0.0347                 0.0486                 0.0639
 Red. Mass:       3.3404                 2.9999                 1.9545
 IR Intens:        3.514                  9.206                 25.779
 Frequency:       315.99                 373.66                 495.16
 Force Cnst:      0.1506                 0.2337                 0.4048
 Red. Mass:       2.5602                 2.8407                 2.8020
 IR Intens:       10.896                 19.770                 37.240
 Frequency:       568.84                 701.96                 708.54
 Force Cnst:      0.2332                 0.5331                 0.4308
 Red. Mass:       1.2230                 1.8363                 1.4564
 IR Intens:       84.708                 10.796                 12.664
 Frequency:       768.41                 817.52                 835.96
 Force Cnst:      0.5926                 0.6359                 0.8852
 Red. Mass:       1.7034                 1.6148                 2.1500
 IR Intens:       27.061                 17.141                  7.879
 Frequency:       860.84                 934.53                 958.25
 Force Cnst:      0.6542                 0.9515                 0.7250
 Red. Mass:       1.4983                 1.8491                 1.3400
 IR Intens:       34.060                  4.209                 14.680
 Frequency:      1012.09                1081.36                1218.23
 Force Cnst:      1.0938                 1.0190                 1.1147
 Red. Mass:       1.8124                 1.4791                 1.2748
 IR Intens:       16.297                 16.620                  2.923
 Frequency:      1293.13                1412.03                1458.51
 Force Cnst:      1.2481                 1.7298                 4.1847
 Red. Mass:       1.2668                 1.4725                 3.3388
 IR Intens:       11.705                 24.351                 85.697
 Frequency:      1558.92                1619.96                1743.72
 Force Cnst:     10.5740                 7.8370                 9.0698
 Red. Mass:       7.3848                 5.0687                 5.0628
 IR Intens:      273.757                 25.030                  9.441
 Frequency:      3004.80                3107.33                3203.31
 Force Cnst:      5.7495                 6.1843                 6.5926
 Red. Mass:       1.0808                 1.0871                 1.0904
 IR Intens:       31.390                 63.538                 29.441
 Frequency:      3207.03                3248.58                3323.51
 Force Cnst:      6.6364                 6.7643                 7.4418
 Red. Mass:       1.0952                 1.0879                 1.1435
 IR Intens:        0.463                 19.515                 17.486

 STANDARD THERMODYNAMIC QUANTITIES AT   298.15 K  AND     1.00 ATM

   This Molecule has  2 Imaginary Frequencies
   Zero point vibrational energy:       57.886 kcal/mol

   Atom    1 Element C  Has Mass   12.00000
   Atom    2 Element C  Has Mass   12.00000
   Atom    3 Element C  Has Mass   12.00000
   Atom    4 Element C  Has Mass   12.00000
   Atom    5 Element C  Has Mass   12.00000
   Atom    6 Element N  Has Mass   14.00307
   Atom    7 Element H  Has Mass    1.00783
   Atom    8 Element H  Has Mass    1.00783
   Atom    9 Element H  Has Mass    1.00783
   Atom   10 Element H  Has Mass    1.00783
   Atom   11 Element H  Has Mass    1.00783
   Atom   12 Element C  Has Mass   12.00000
   Atom   13 Element H  Has Mass    1.00783
   Molecular Mass:    92.050050 amu
   Principal axes and moments of inertia in amu*Bohr^2:
                             1           2           3
    Eigenvalues --      368.57454   799.98843  1064.21074
          X               0.76321    -0.49928     0.41017
          Y               0.57750     0.81180    -0.08641
          Z              -0.28984     0.30282     0.90791
   Rotational Symmetry Number is   1
   The Molecule is an Asymmetric Top
   Translational Enthalpy:        0.889 kcal/mol
   Rotational Enthalpy:           0.889 kcal/mol
   Vibrational Enthalpy:         60.610 kcal/mol
   gas constant (RT):             0.592 kcal/mol
   Translational Entropy:        39.471  cal/mol.K
   Rotational Entropy:           27.242  cal/mol.K
   Vibrational Entropy:          15.689  cal/mol.K

   Total Enthalpy:               62.980 kcal/mol
   Total Entropy:                82.402  cal/mol.K

 Total job time:  283.28s(wall), 247.80s(cpu)
        *  Thank you very much for using Q-Chem.  Have a nice day.  *
