 Q-Chem 5.0, Q-Chem, Inc., Pleasanton, CA (2017)
 Q-Chem 5.0.2 for Intel X86 EM64T Linux

User input:
--------------------------------------------------------------
$molecule
0 2
C        1.3702042856    0.1722898742   -1.0234739736
C       -0.2738228105   -1.8770960671   -0.3420086374
C       -1.2037652143   -1.2372731909    0.3436083309
C       -1.2413221777    0.1703423799    0.7549835108
C       -0.4736479440    1.2122643190    0.3786350994
N        0.5103073309    1.3547264949   -0.6357420324
H        1.3776119758   -0.5803976259   -1.7886303499
H       -0.1281727675   -2.8952727241   -0.6819342112
H       -2.0659721450   -1.8261351550    0.6866353672
H       -2.0151576671    0.4040006649    1.4833317200
H       -0.6763847410    2.1787575536    0.8400834099
C        1.9332514306    1.0405319344   -0.2613179487
H        2.7419247638    1.5294689403    0.2557561490
$end

$rem
method                b3lyp
basis                 6-31+g(d,p)
unrestricted          true
symmetry              off
sym_ignore            true
incdft                false
incfock               0
scf_convergence       8
thresh                14
jobtype               sp
scf_guess             core
scf_guess_mix         5
scf_algorithm         diis
max_scf_cycles        100
$end

--------------------------------------------------------------

             Standard Nuclear Orientation (Angstroms)
    I     Atom           X                Y                Z
 ----------------------------------------------------------------
    1      C       1.3702042856     0.1722898742    -1.0234739736
    2      C      -0.2738228105    -1.8770960671    -0.3420086374
    3      C      -1.2037652143    -1.2372731909     0.3436083309
    4      C      -1.2413221777     0.1703423799     0.7549835108
    5      C      -0.4736479440     1.2122643190     0.3786350994
    6      N       0.5103073309     1.3547264949    -0.6357420324
    7      H       1.3776119758    -0.5803976259    -1.7886303499
    8      H      -0.1281727675    -2.8952727241    -0.6819342112
    9      H      -2.0659721450    -1.8261351550     0.6866353672
   10      H      -2.0151576671     0.4040006649     1.4833317200
   11      H      -0.6763847410     2.1787575536     0.8400834099
   12      C       1.9332514306     1.0405319344    -0.2613179487
   13      H       2.7419247638     1.5294689403     0.2557561490
 ----------------------------------------------------------------

   23    -286.7447952818      4.95E-09 Convergence criterion met
 Total energy in the final basis set = -286.74479528

                    Orbital Energies (a.u.)
 --------------------------------------------------------------

 Alpha MOs
 -- Occupied --
-14.365 -10.251 -10.246 -10.219 -10.214 -10.208 -10.194  -0.981
 -0.812  -0.762  -0.685  -0.604  -0.600  -0.543  -0.498  -0.494
 -0.446  -0.425  -0.389  -0.380  -0.335  -0.318  -0.252  -0.230
 -0.207

 Beta MOs
 -- Occupied --
-14.365 -10.248 -10.247 -10.219 -10.209 -10.199 -10.193  -0.980
 -0.807  -0.753  -0.677  -0.601  -0.590  -0.538  -0.492  -0.486
 -0.442  -0.415  -0.386  -0.379  -0.332  -0.314  -0.240  -0.205

          Ground-State Mulliken Net Atomic Charges

     Atom                 Charge (a.u.)    Spin (a.u.)
  --------------------------------------------------------
      1 C                    -0.202720      -0.143502
      2 C                    -0.237835       1.060608
      3 C                    -0.160501      -0.220118
      4 C                     0.020194       0.073231
      5 C                    -0.180163      -0.051699
      6 N                    -0.147783       0.006912
      7 H                     0.174484       0.004662
      8 H                     0.147197       0.009967
      9 H                     0.138126       0.078774
     10 H                     0.118989      -0.000662
     11 H                     0.125215       0.003591
     12 C                     0.043656       0.185449
     13 H                     0.161141      -0.007214
  --------------------------------------------------------
  Sum of atomic charges =     0.000000

                    Cartesian Multipole Moments
 -----------------------------------------------------------------
    Charge (ESU x 10^10)
                 0.0000
    Dipole Moment (Debye)
         X       1.0351      Y      -0.9415      Z       0.6356
       Tot       1.5368
    Quadrupole Moments (Debye-Ang)
        XX     -36.9758     XY       2.4376     YY     -40.3484
        XZ      -2.3752     YZ       5.2784     ZZ     -42.7624

 Total job time:  60.11s(wall), 114.02s(cpu)
        *  Thank you very much for using Q-Chem.  Have a nice day.  *
