 Q-Chem 5.0, Q-Chem, Inc., Pleasanton, CA (2017)
 Q-Chem 5.0.2 for Intel X86 EM64T Linux

User input:
--------------------------------------------------------------
$molecule
0 2
C        1.3702042856    0.1722898742   -1.0234739736
C       -0.2738228105   -1.8770960671   -0.3420086374
C       -1.2037652143   -1.2372731909    0.3436083309
C       -1.2413221777    0.1703423799    0.7549835108
C       -0.4736479440    1.2122643190    0.3786350994
N        0.5103073309    1.3547264949   -0.6357420324
H        1.3776119758   -0.5803976259   -1.7886303499
H       -0.1281727675   -2.8952727241   -0.6819342112
H       -2.0659721450   -1.8261351550    0.6866353672
H       -2.0151576671    0.4040006649    1.4833317200
H       -0.6763847410    2.1787575536    0.8400834099
C        1.9332514306    1.0405319344   -0.2613179487
H        2.7419247638    1.5294689403    0.2557561490
$end

$rem
method                b3lyp
basis                 6-31g(d)
unrestricted          true
symmetry              off
sym_ignore            true
incdft                false
incfock               0
scf_convergence       8
thresh                14
jobtype               sp
scf_guess             read
scf_algorithm         diis
max_scf_cycles        100
$end

--------------------------------------------------------------

             Standard Nuclear Orientation (Angstroms)
    I     Atom           X                Y                Z
 ----------------------------------------------------------------
    1      C       1.3702042856     0.1722898742    -1.0234739736
    2      C      -0.2738228105    -1.8770960671    -0.3420086374
    3      C      -1.2037652143    -1.2372731909     0.3436083309
    4      C      -1.2413221777     0.1703423799     0.7549835108
    5      C      -0.4736479440     1.2122643190     0.3786350994
    6      N       0.5103073309     1.3547264949    -0.6357420324
    7      H       1.3776119758    -0.5803976259    -1.7886303499
    8      H      -0.1281727675    -2.8952727241    -0.6819342112
    9      H      -2.0659721450    -1.8261351550     0.6866353672
   10      H      -2.0151576671     0.4040006649     1.4833317200
   11      H      -0.6763847410     2.1787575536     0.8400834099
   12      C       1.9332514306     1.0405319344    -0.2613179487
   13      H       2.7419247638     1.5294689403     0.2557561490
 ----------------------------------------------------------------

    2    -286.7188535513      2.66E-09 Convergence criterion met
 Total energy in the final basis set = -286.71885355

                    Orbital Energies (a.u.)
 --------------------------------------------------------------

 Alpha MOs
 -- Occupied --
-14.349 -10.239 -10.234 -10.206 -10.200 -10.195 -10.181  -0.967
 -0.798  -0.749  -0.672  -0.595  -0.590  -0.533  -0.488  -0.484
 -0.434  -0.414  -0.378  -0.368  -0.323  -0.305  -0.239  -0.218
 -0.193

 Beta MOs
 -- Occupied --
-14.349 -10.237 -10.235 -10.206 -10.196 -10.186 -10.180  -0.966
 -0.794  -0.741  -0.664  -0.592  -0.580  -0.528  -0.482  -0.477
 -0.430  -0.404  -0.374  -0.367  -0.321  -0.302  -0.227  -0.191

          Ground-State Mulliken Net Atomic Charges

     Atom                 Charge (a.u.)    Spin (a.u.)
  --------------------------------------------------------
      1 C                    -0.032481      -0.114644
      2 C                    -0.229170       0.997010
      3 C                    -0.120097      -0.162773
      4 C                    -0.116769       0.064503
      5 C                     0.004290      -0.052866
      6 N                    -0.400817       0.003215
      7 H                     0.186708       0.005803
      8 H                     0.155362       0.005908
      9 H                     0.141112       0.080414
     10 H                     0.122995      -0.000331
     11 H                     0.135666       0.003775
     12 C                    -0.019406       0.177922
     13 H                     0.172605      -0.007935
  --------------------------------------------------------
  Sum of atomic charges =    -0.000000

                    Cartesian Multipole Moments
 -----------------------------------------------------------------
    Charge (ESU x 10^10)
                -0.0000
    Dipole Moment (Debye)
         X       1.0595      Y      -0.9481      Z       0.6039
       Tot       1.5447
    Quadrupole Moments (Debye-Ang)
        XX     -35.5895     XY       2.2092     YY     -38.7914
        XZ      -2.0417     YZ       4.8089     ZZ     -40.9785

 Total job time:  8.25s(wall), 6.74s(cpu)
        *  Thank you very much for using Q-Chem.  Have a nice day.  *
