 Q-Chem 5.0, Q-Chem, Inc., Pleasanton, CA (2017)
 Q-Chem 5.0.2 for Intel X86 EM64T Linux

User input:
--------------------------------------------------------------
$molecule
0 2
C        1.1493045402    0.6308558999   -1.2323093714
C       -0.0098309048   -1.8933828448    0.2372522854
C       -1.1726106072   -1.2447231542    0.3187836365
C       -1.4446847978    0.1722064088    0.5345120025
C       -0.5142637702    1.1874223704    0.5906312879
N        0.7398416585    1.0870977917    0.0352180464
H        0.7549760958    0.0388727544   -2.0515795574
H        0.2074036234   -2.9518470615    0.1174985496
H       -2.0764771635   -1.8748754000    0.3314822689
H       -2.4725810317    0.4188146132    0.7794072720
H       -0.7264907012    2.1002466433    1.1535790173
C        2.1907060328    0.9907670012   -0.5499296729
H        3.2297613453    0.9847523758   -0.2546193308
$end

$rem
method                b3lyp
basis                 6-31g(d)
unrestricted          true
symmetry              off
sym_ignore            true
incdft                false
incfock               0
scf_convergence       8
thresh                14
jobtype               ts
scf_guess             read
scf_algorithm         diis
max_scf_cycles        100
geom_opt_max_cycles   500
geom_opt_dmax         100
geom_opt_tol_gradient 10
geom_opt_hessian      read
$end

--------------------------------------------------------------

    2    -286.6678789948      8.61E-10 Convergence criterion met
 Total energy in the final basis set = -286.66787899
   17    -286.6699791774      4.70E-09 Convergence criterion met
 Total energy in the final basis set = -286.66997918
   17    -286.6720425105      5.01E-09 Convergence criterion met
 Total energy in the final basis set = -286.67204251
   17    -286.6740797527      4.51E-09 Convergence criterion met
 Total energy in the final basis set = -286.67407975
   17    -286.6761086133      6.74E-09 Convergence criterion met
 Total energy in the final basis set = -286.67610861
   17    -286.6781361455      9.00E-09 Convergence criterion met
 Total energy in the final basis set = -286.67813615
   18    -286.6801592933      2.44E-09 Convergence criterion met
 Total energy in the final basis set = -286.68015929
   18    -286.6821618611      3.31E-09 Convergence criterion met
   15    -286.7188533740      9.30E-09 Convergence criterion met
 Total energy in the final basis set = -286.71885337
   11    -286.7188534450      5.38E-09 Convergence criterion met
 Total energy in the final basis set = -286.71885344
   11    -286.7188534915      7.23E-09 Convergence criterion met
 Total energy in the final basis set = -286.71885349
   10    -286.7188535346      6.10E-09 Convergence criterion met
 Total energy in the final basis set = -286.71885353
   13    -286.7188532012      9.12E-09 Convergence criterion met
 Total energy in the final basis set = -286.71885320
   13    -286.7188535514      8.23E-09 Convergence criterion met
 Total energy in the final basis set = -286.71885355

             Standard Nuclear Orientation (Angstroms)
    I     Atom           X                Y                Z
 ----------------------------------------------------------------
    1      C       1.3702042856     0.1722898742    -1.0234739736
    2      C      -0.2738228105    -1.8770960671    -0.3420086374
    3      C      -1.2037652143    -1.2372731909     0.3436083309
    4      C      -1.2413221777     0.1703423799     0.7549835108
    5      C      -0.4736479440     1.2122643190     0.3786350994
    6      N       0.5103073309     1.3547264949    -0.6357420324
    7      H       1.3776119758    -0.5803976259    -1.7886303499
    8      H      -0.1281727675    -2.8952727241    -0.6819342112
    9      H      -2.0659721450    -1.8261351550     0.6866353672
   10      H      -2.0151576671     0.4040006649     1.4833317200
   11      H      -0.6763847410     2.1787575536     0.8400834099
   12      C       1.9332514306     1.0405319344    -0.2613179487
   13      H       2.7419247638     1.5294689403     0.2557561490
 ----------------------------------------------------------------

   10    -286.7188535513      4.48E-09 Convergence criterion met
 Total energy in the final basis set = -286.71885355
 Final energy is   -286.718853551299
 **  OPTIMIZATION CONVERGED  **

                    Orbital Energies (a.u.)
 --------------------------------------------------------------

 Alpha MOs
 -- Occupied --
-14.349 -10.239 -10.234 -10.206 -10.200 -10.195 -10.181  -0.967
 -0.798  -0.749  -0.672  -0.595  -0.590  -0.533  -0.488  -0.484
 -0.434  -0.414  -0.378  -0.368  -0.323  -0.305  -0.239  -0.218
 -0.193

 Beta MOs
 -- Occupied --
-14.349 -10.237 -10.235 -10.206 -10.196 -10.186 -10.180  -0.966
 -0.794  -0.741  -0.664  -0.592  -0.580  -0.528  -0.482  -0.477
 -0.430  -0.404  -0.374  -0.367  -0.321  -0.302  -0.227  -0.191

          Ground-State Mulliken Net Atomic Charges

     Atom                 Charge (a.u.)    Spin (a.u.)
  --------------------------------------------------------
      1 C                    -0.032481      -0.114647
      2 C                    -0.229169       0.997010
      3 C                    -0.120097      -0.162772
      4 C                    -0.116769       0.064503
      5 C                     0.004290      -0.052866
      6 N                    -0.400817       0.003215
      7 H                     0.186708       0.005803
      8 H                     0.155362       0.005908
      9 H                     0.141112       0.080414
     10 H                     0.122995      -0.000331
     11 H                     0.135666       0.003775
     12 C                    -0.019405       0.177925
     13 H                     0.172605      -0.007935
  --------------------------------------------------------
  Sum of atomic charges =    -0.000000

                    Cartesian Multipole Moments
 -----------------------------------------------------------------
    Charge (ESU x 10^10)
                -0.0000
    Dipole Moment (Debye)
         X       1.0595      Y      -0.9481      Z       0.6039
       Tot       1.5447
    Quadrupole Moments (Debye-Ang)
        XX     -35.5895     XY       2.2092     YY     -38.7914
        XZ      -2.0417     YZ       4.8089     ZZ     -40.9785

 Total job time:  4057.65s(wall), 6063.96s(cpu)
        *  Thank you very much for using Q-Chem.  Have a nice day.  *
