 Q-Chem 5.0, Q-Chem, Inc., Pleasanton, CA (2017)
 Q-Chem 5.0.2 for Intel X86 EM64T Linux

User input:
--------------------------------------------------------------
$molecule
0 2
C        1.3702042856    0.1722898742   -1.0234739736
C       -0.2738228105   -1.8770960671   -0.3420086374
C       -1.2037652143   -1.2372731909    0.3436083309
C       -1.2413221777    0.1703423799    0.7549835108
C       -0.4736479440    1.2122643190    0.3786350994
N        0.5103073309    1.3547264949   -0.6357420324
H        1.3776119758   -0.5803976259   -1.7886303499
H       -0.1281727675   -2.8952727241   -0.6819342112
H       -2.0659721450   -1.8261351550    0.6866353672
H       -2.0151576671    0.4040006649    1.4833317200
H       -0.6763847410    2.1787575536    0.8400834099
C        1.9332514306    1.0405319344   -0.2613179487
H        2.7419247638    1.5294689403    0.2557561490
$end

$rem
method                b3lyp
basis                 6-31+g(d,p)
unrestricted          true
symmetry              off
sym_ignore            true
incdft                false
incfock               0
scf_convergence       8
thresh                14
jobtype               freq
scf_guess             read
scf_algorithm         diis
max_scf_cycles        100
$end

--------------------------------------------------------------

             Standard Nuclear Orientation (Angstroms)
    I     Atom           X                Y                Z
 ----------------------------------------------------------------
    1      C       1.3702042856     0.1722898742    -1.0234739736
    2      C      -0.2738228105    -1.8770960671    -0.3420086374
    3      C      -1.2037652143    -1.2372731909     0.3436083309
    4      C      -1.2413221777     0.1703423799     0.7549835108
    5      C      -0.4736479440     1.2122643190     0.3786350994
    6      N       0.5103073309     1.3547264949    -0.6357420324
    7      H       1.3776119758    -0.5803976259    -1.7886303499
    8      H      -0.1281727675    -2.8952727241    -0.6819342112
    9      H      -2.0659721450    -1.8261351550     0.6866353672
   10      H      -2.0151576671     0.4040006649     1.4833317200
   11      H      -0.6763847410     2.1787575536     0.8400834099
   12      C       1.9332514306     1.0405319344    -0.2613179487
   13      H       2.7419247638     1.5294689403     0.2557561490
 ----------------------------------------------------------------

    2    -286.7447952819      2.24E-09 Convergence criterion met
 Total energy in the final basis set = -286.74479528

                    Orbital Energies (a.u.)
 --------------------------------------------------------------

 Alpha MOs
 -- Occupied --
-14.365 -10.251 -10.246 -10.219 -10.214 -10.208 -10.194  -0.981
 -0.812  -0.762  -0.685  -0.604  -0.600  -0.543  -0.498  -0.494
 -0.446  -0.425  -0.389  -0.380  -0.335  -0.318  -0.252  -0.230
 -0.207

 Beta MOs
 -- Occupied --
-14.365 -10.248 -10.247 -10.219 -10.209 -10.199 -10.193  -0.980
 -0.807  -0.753  -0.677  -0.601  -0.590  -0.538  -0.492  -0.486
 -0.442  -0.415  -0.386  -0.379  -0.332  -0.314  -0.240  -0.205

          Ground-State Mulliken Net Atomic Charges

     Atom                 Charge (a.u.)    Spin (a.u.)
  --------------------------------------------------------
      1 C                    -0.202720      -0.143487
      2 C                    -0.237835       1.060591
      3 C                    -0.160501      -0.220103
      4 C                     0.020194       0.073214
      5 C                    -0.180163      -0.051680
      6 N                    -0.147783       0.006910
      7 H                     0.174484       0.004662
      8 H                     0.147197       0.009968
      9 H                     0.138126       0.078774
     10 H                     0.118989      -0.000661
     11 H                     0.125215       0.003590
     12 C                     0.043655       0.185435
     13 H                     0.161141      -0.007213
  --------------------------------------------------------
  Sum of atomic charges =     0.000000

                    Cartesian Multipole Moments
 -----------------------------------------------------------------
    Charge (ESU x 10^10)
                 0.0000
    Dipole Moment (Debye)
         X       1.0351      Y      -0.9415      Z       0.6356
       Tot       1.5368
    Quadrupole Moments (Debye-Ang)
        XX     -36.9758     XY       2.4376     YY     -40.3484
        XZ      -2.3752     YZ       5.2784     ZZ     -42.7624

 Frequency:      -161.02                  40.66                 137.84
 Force Cnst:      0.0542                 0.0028                 0.0460
 Red. Mass:       3.5465                 2.8854                 4.1116
 IR Intens:        3.502                  6.218                  5.976
 Frequency:       261.37                 309.68                 450.92
 Force Cnst:      0.1325                 0.1677                 0.2640
 Red. Mass:       3.2916                 2.9671                 2.2039
 IR Intens:        6.046                  2.017                 32.738
 Frequency:       483.39                 509.28                 555.16
 Force Cnst:      0.2838                 0.4414                 0.2875
 Red. Mass:       2.0614                 2.8888                 1.5835
 IR Intens:       53.211                 14.202                 28.423
 Frequency:       641.30                 706.29                 751.11
 Force Cnst:      0.3563                 0.5047                 0.6623
 Red. Mass:       1.4703                 1.7172                 1.9924
 IR Intens:       43.681                 11.671                 26.636
 Frequency:       785.76                 815.82                 852.98
 Force Cnst:      0.6923                 0.8937                 0.7024
 Red. Mass:       1.9031                 2.2789                 1.6386
 IR Intens:       13.220                  8.569                  4.797
 Frequency:       905.07                 962.13                 968.97
 Force Cnst:      1.1346                 1.0051                 0.7912
 Red. Mass:       2.3508                 1.8428                 1.4302
 IR Intens:        4.624                 14.937                  2.099
 Frequency:       972.91                1022.34                1139.10
 Force Cnst:      0.7357                 0.9522                 2.3490
 Red. Mass:       1.3192                 1.5463                 3.0726
 IR Intens:        9.604                  4.193                 20.222
 Frequency:      1278.62                1318.71                1436.72
 Force Cnst:      1.2077                 1.2517                 1.6917
 Red. Mass:       1.2538                 1.2217                 1.3910
 IR Intens:       14.311                 14.766                  7.852
 Frequency:      1643.21                1682.14                1742.82
 Force Cnst:     13.9671                 8.8689                 8.9455
 Red. Mass:       8.7795                 5.3198                 4.9986
 IR Intens:       39.531                 26.450                  6.894
 Frequency:      3025.78                3144.71                3170.50
 Force Cnst:      5.8319                 6.3199                 6.4712
 Red. Mass:       1.0812                 1.0847                 1.0927
 IR Intens:       21.536                  4.776                 28.802
 Frequency:      3240.78                3305.63                3371.28
 Force Cnst:      6.8151                 7.0104                 7.6623
 Red. Mass:       1.1013                 1.0889                 1.1442
 IR Intens:        0.529                 20.964                  9.063

 STANDARD THERMODYNAMIC QUANTITIES AT   298.15 K  AND     1.00 ATM

   This Molecule has  1 Imaginary Frequencies
   Zero point vibrational energy:       59.517 kcal/mol

   Atom    1 Element C  Has Mass   12.00000
   Atom    2 Element C  Has Mass   12.00000
   Atom    3 Element C  Has Mass   12.00000
   Atom    4 Element C  Has Mass   12.00000
   Atom    5 Element C  Has Mass   12.00000
   Atom    6 Element N  Has Mass   14.00307
   Atom    7 Element H  Has Mass    1.00783
   Atom    8 Element H  Has Mass    1.00783
   Atom    9 Element H  Has Mass    1.00783
   Atom   10 Element H  Has Mass    1.00783
   Atom   11 Element H  Has Mass    1.00783
   Atom   12 Element C  Has Mass   12.00000
   Atom   13 Element H  Has Mass    1.00783
   Molecular Mass:    92.050050 amu
   Principal axes and moments of inertia in amu*Bohr^2:
                             1           2           3
    Eigenvalues --      371.79514   737.11321  1036.82206
          X               0.71298    -0.52865     0.46065
          Y               0.66116     0.72564    -0.19057
          Z              -0.23352     0.44044     0.86688
   Rotational Symmetry Number is   1
   The Molecule is an Asymmetric Top
   Translational Enthalpy:        0.889 kcal/mol
   Rotational Enthalpy:           0.889 kcal/mol
   Vibrational Enthalpy:         62.111 kcal/mol
   gas constant (RT):             0.592 kcal/mol
   Translational Entropy:        39.471  cal/mol.K
   Rotational Entropy:           27.143  cal/mol.K
   Vibrational Entropy:          15.937  cal/mol.K

   Total Enthalpy:               64.481 kcal/mol
   Total Entropy:                82.551  cal/mol.K

 Total job time:  580.05s(wall), 524.75s(cpu)
        *  Thank you very much for using Q-Chem.  Have a nice day.  *
