 Q-Chem 5.0, Q-Chem, Inc., Pleasanton, CA (2017)
 Q-Chem 5.0.2 for Intel X86 EM64T Linux

User input:
--------------------------------------------------------------
$molecule
0 2
C        1.3611836815    0.1680363770   -1.0293631840
C       -0.2474969814   -1.8876034479   -0.2865789766
C       -1.2186390614   -1.2341157614    0.3283807345
C       -1.2463752393    0.1680196696    0.7636127767
C       -0.4677649886    1.2090109211    0.4013819772
N        0.5096395636    1.3458711264   -0.6195521563
H        1.3618705710   -0.5668181527   -1.8107032294
H       -0.0875687412   -2.9027572459   -0.6270603305
H       -2.1198350733   -1.8066889597    0.5868523390
H       -2.0203588229    0.3990997780    1.4918627763
H       -0.6587381753    2.1718630833    0.8732171520
C        1.9346009282    1.0424295691   -0.2756500226
H        2.7545366587    1.5398604413    0.2135265779
$end

$rem
method                b3lyp
basis                 6-31+g(d,p)
unrestricted          true
symmetry              off
sym_ignore            true
incdft                false
incfock               0
scf_convergence       8
thresh                14
jobtype               freq
scf_guess             read
scf_algorithm         diis
max_scf_cycles        100
$end

--------------------------------------------------------------

             Standard Nuclear Orientation (Angstroms)
    I     Atom           X                Y                Z
 ----------------------------------------------------------------
    1      C       1.3611836815     0.1680363770    -1.0293631840
    2      C      -0.2474969814    -1.8876034479    -0.2865789766
    3      C      -1.2186390614    -1.2341157614     0.3283807345
    4      C      -1.2463752393     0.1680196696     0.7636127767
    5      C      -0.4677649886     1.2090109211     0.4013819772
    6      N       0.5096395636     1.3458711264    -0.6195521563
    7      H       1.3618705710    -0.5668181527    -1.8107032294
    8      H      -0.0875687412    -2.9027572459    -0.6270603305
    9      H      -2.1198350733    -1.8066889597     0.5868523390
   10      H      -2.0203588229     0.3990997780     1.4918627763
   11      H      -0.6587381753     2.1718630833     0.8732171520
   12      C       1.9346009282     1.0424295691    -0.2756500226
   13      H       2.7545366587     1.5398604413     0.2135265779
 ----------------------------------------------------------------

    2    -286.7448422333      1.53E-09 Convergence criterion met
 Total energy in the final basis set = -286.74484223

                    Orbital Energies (a.u.)
 --------------------------------------------------------------

 Alpha MOs
 -- Occupied --
-14.365 -10.251 -10.247 -10.219 -10.213 -10.208 -10.194  -0.982
 -0.811  -0.761  -0.684  -0.604  -0.600  -0.543  -0.498  -0.494
 -0.446  -0.426  -0.389  -0.380  -0.336  -0.317  -0.252  -0.229
 -0.206

 Beta MOs
 -- Occupied --
-14.365 -10.249 -10.248 -10.219 -10.209 -10.199 -10.193  -0.982
 -0.807  -0.753  -0.676  -0.601  -0.590  -0.538  -0.491  -0.486
 -0.442  -0.416  -0.386  -0.378  -0.333  -0.314  -0.239  -0.205

          Ground-State Mulliken Net Atomic Charges

     Atom                 Charge (a.u.)    Spin (a.u.)
  --------------------------------------------------------
      1 C                    -0.213659      -0.154530
      2 C                    -0.240179       1.048063
      3 C                    -0.159349      -0.208886
      4 C                     0.010382       0.063476
      5 C                    -0.166161      -0.047088
      6 N                    -0.145157       0.009508
      7 H                     0.173929       0.005435
      8 H                     0.146644       0.009361
      9 H                     0.138289       0.077011
     10 H                     0.119625      -0.000575
     11 H                     0.125069       0.003495
     12 C                     0.049686       0.202643
     13 H                     0.160881      -0.007914
  --------------------------------------------------------
  Sum of atomic charges =    -0.000000

                    Cartesian Multipole Moments
 -----------------------------------------------------------------
    Charge (ESU x 10^10)
                -0.0000
    Dipole Moment (Debye)
         X       1.0386      Y      -0.8629      Z       0.5073
       Tot       1.4424
    Quadrupole Moments (Debye-Ang)
        XX     -36.8214     XY       2.5803     YY     -40.3378
        XZ      -2.3435     YZ       5.3172     ZZ     -42.7631

 Frequency:      -168.26                  64.61                 139.07
 Force Cnst:      0.0636                 0.0071                 0.0441
 Red. Mass:       3.8102                 2.8747                 3.8665
 IR Intens:        2.826                  6.973                  7.347
 Frequency:       256.51                 315.60                 455.48
 Force Cnst:      0.1275                 0.1681                 0.2589
 Red. Mass:       3.2878                 2.8640                 2.1180
 IR Intens:        6.431                  2.985                 36.429
 Frequency:       476.96                 503.50                 554.42
 Force Cnst:      0.2844                 0.3607                 0.3068
 Red. Mass:       2.1218                 2.4148                 1.6943
 IR Intens:       52.093                 19.115                 19.790
 Frequency:       640.49                 705.43                 749.27
 Force Cnst:      0.3602                 0.5344                 0.6491
 Red. Mass:       1.4905                 1.8228                 1.9624
 IR Intens:       42.010                 14.496                 27.990
 Frequency:       782.17                 812.08                 848.97
 Force Cnst:      0.6657                 0.8678                 0.7021
 Red. Mass:       1.8467                 2.2334                 1.6534
 IR Intens:       15.726                  9.575                  4.735
 Frequency:       908.00                 956.09                 964.82
 Force Cnst:      1.1335                 0.9796                 0.8219
 Red. Mass:       2.3335                 1.8189                 1.4986
 IR Intens:        3.204                 15.125                  2.238
 Frequency:       970.75                1022.05                1144.50
 Force Cnst:      0.7261                 0.9570                 2.2892
 Red. Mass:       1.3078                 1.5549                 2.9662
 IR Intens:       10.153                  5.842                 18.147
 Frequency:      1274.89                1313.40                1432.70
 Force Cnst:      1.2050                 1.2645                 1.6908
 Red. Mass:       1.2583                 1.2441                 1.3981
 IR Intens:       14.794                 15.016                  7.876
 Frequency:      1636.66                1674.72                1724.32
 Force Cnst:     13.7881                 8.7055                 8.8486
 Red. Mass:       8.7365                 5.2682                 5.0511
 IR Intens:       39.545                 26.445                  7.093
 Frequency:      3032.47                3153.06                3176.21
 Force Cnst:      5.8580                 6.3517                 6.4961
 Red. Mass:       1.0812                 1.0844                 1.0929
 IR Intens:       22.921                  3.638                 29.271
 Frequency:      3247.36                3311.71                3376.30
 Force Cnst:      6.8428                 7.0387                 7.6636
 Red. Mass:       1.1013                 1.0893                 1.1410
 IR Intens:        0.442                 20.520                  9.788

 STANDARD THERMODYNAMIC QUANTITIES AT   298.15 K  AND     1.00 ATM

   This Molecule has  1 Imaginary Frequencies
   Zero point vibrational energy:       59.505 kcal/mol

   Atom    1 Element C  Has Mass   12.00000
   Atom    2 Element C  Has Mass   12.00000
   Atom    3 Element C  Has Mass   12.00000
   Atom    4 Element C  Has Mass   12.00000
   Atom    5 Element C  Has Mass   12.00000
   Atom    6 Element N  Has Mass   14.00307
   Atom    7 Element H  Has Mass    1.00783
   Atom    8 Element H  Has Mass    1.00783
   Atom    9 Element H  Has Mass    1.00783
   Atom   10 Element H  Has Mass    1.00783
   Atom   11 Element H  Has Mass    1.00783
   Atom   12 Element C  Has Mass   12.00000
   Atom   13 Element H  Has Mass    1.00783
   Molecular Mass:    92.050050 amu
   Principal axes and moments of inertia in amu*Bohr^2:
                             1           2           3
    Eigenvalues --      371.56868   737.01113  1038.76800
          X               0.71423    -0.52707     0.46052
          Y               0.65808     0.72976    -0.18542
          Z              -0.23834     0.43549     0.86807
   Rotational Symmetry Number is   1
   The Molecule is an Asymmetric Top
   Translational Enthalpy:        0.889 kcal/mol
   Rotational Enthalpy:           0.889 kcal/mol
   Vibrational Enthalpy:         62.074 kcal/mol
   gas constant (RT):             0.592 kcal/mol
   Translational Entropy:        39.471  cal/mol.K
   Rotational Entropy:           27.144  cal/mol.K
   Vibrational Entropy:          15.042  cal/mol.K

   Total Enthalpy:               64.444 kcal/mol
   Total Entropy:                81.658  cal/mol.K

 Total job time:  588.11s(wall), 524.48s(cpu)
        *  Thank you very much for using Q-Chem.  Have a nice day.  *
