 Q-Chem 5.0, Q-Chem, Inc., Pleasanton, CA (2017)
 Q-Chem 5.0.2 for Intel X86 EM64T Linux

User input:
--------------------------------------------------------------
$molecule
0 2
C        4.4551559802    0.6487122645   -3.6478587444
C       -0.8364894736   -0.1403905592    1.1145847169
C       -1.9887526648   -1.0006039089    0.8586060911
C       -3.0337687367   -0.3939309564    1.4892313860
C       -2.4661828979    0.8063851475    2.0977945959
N       -1.1472583463    0.9375122163    1.8601138212
H        4.2240368269    1.2751648086   -4.4800388038
H        0.1804892806   -0.3045800291    0.7704758154
H       -1.9875289051   -1.9202018104    0.2876864905
H       -4.0666423064   -0.7135493232    1.5421566572
H       -3.0004509864    1.5446399108    2.6881119977
C        4.7172256354   -0.0568077150   -2.7066846635
H        4.9501665941   -0.6823500455   -1.8741793602
$end

$rem
method                b3lyp
basis                 6-31g(d)
unrestricted          true
symmetry              off
sym_ignore            true
incdft                false
incfock               0
scf_convergence       8
thresh                14
jobtype               opt
scf_guess             read
scf_algorithm         diis
max_scf_cycles        100
geom_opt_tol_gradient 600
geom_opt_tol_displacement 2400
geom_opt_tol_energy   200
geom_opt_max_cycles   100
$end

--------------------------------------------------------------

    2    -286.8363719332      6.69E-10 Convergence criterion met
 Total energy in the final basis set = -286.83637193
   12    -286.8363743846      9.31E-09 Convergence criterion met
 Total energy in the final basis set = -286.83637438

             Standard Nuclear Orientation (Angstroms)
    I     Atom           X                Y                Z
 ----------------------------------------------------------------
    1      C       4.4448251551     0.6372637209    -3.6515049545
    2      C      -0.8318487228    -0.1404940757     1.1235702938
    3      C      -1.9845078899    -0.9943585772     0.8493949070
    4      C      -3.0317588393    -0.3911407899     1.4796050849
    5      C      -2.4654796112     0.8002776459     2.1059957538
    6      N      -1.1442869921     0.9291613222     1.8798342647
    7      H       4.2038111475     1.2482358154    -4.4918118710
    8      H       0.1856065350    -0.3014629497     0.7798903302
    9      H      -1.9817478971    -1.9059906131     0.2658181137
   10      H      -4.0668021090    -0.7050643282     1.5210411452
   11      H      -3.0031628218     1.5348656731     2.6986064784
   12      C       4.7170023246    -0.0509020997    -2.7007614453
   13      H       4.9583497209    -0.6603907440    -1.8596781008
 ----------------------------------------------------------------

   12    -286.8363761733      9.46E-09 Convergence criterion met
 Total energy in the final basis set = -286.83637617
 Final energy is   -286.836376173335
 **  OPTIMIZATION CONVERGED  **

                    Orbital Energies (a.u.)
 --------------------------------------------------------------

 Alpha MOs
 -- Occupied --
-14.315 -10.241 -10.241 -10.200 -10.200 -10.192 -10.190  -0.958
 -0.769  -0.743  -0.722  -0.570  -0.566  -0.565  -0.520  -0.492
 -0.417  -0.410  -0.405  -0.391  -0.282  -0.282  -0.268  -0.252
 -0.241

 Beta MOs
 -- Occupied --
-14.318 -10.233 -10.233 -10.199 -10.198 -10.192 -10.190  -0.951
 -0.767  -0.743  -0.701  -0.566  -0.565  -0.554  -0.518  -0.492
 -0.413  -0.403  -0.385  -0.379  -0.282  -0.282  -0.269  -0.248

          Ground-State Mulliken Net Atomic Charges

     Atom                 Charge (a.u.)    Spin (a.u.)
  --------------------------------------------------------
      1 C                    -0.187542      -0.000000
      2 C                     0.057381       0.532432
      3 C                    -0.151302       0.084002
      4 C                    -0.151157       0.084222
      5 C                     0.057135       0.532054
      6 N                    -0.408669      -0.167593
      7 H                     0.188694       0.000000
      8 H                     0.153332      -0.026625
      9 H                     0.145444      -0.005924
     10 H                     0.145132      -0.005939
     11 H                     0.152703      -0.026629
     12 C                    -0.188939      -0.000000
     13 H                     0.187788       0.000000
  --------------------------------------------------------
  Sum of atomic charges =     0.000000

                    Cartesian Multipole Moments
 -----------------------------------------------------------------
    Charge (ESU x 10^10)
                 0.0000
    Dipole Moment (Debye)
         X      -1.2356      Y      -1.4655      Z      -0.6664
       Tot       2.0294
    Quadrupole Moments (Debye-Ang)
        XX     -34.3874     XY      -0.8325     YY     -40.5034
        XZ      -2.2599     YZ      -3.7173     ZZ     -40.0750

 Total job time:  72.28s(wall), 61.60s(cpu)
        *  Thank you very much for using Q-Chem.  Have a nice day.  *
