 Q-Chem 5.0, Q-Chem, Inc., Pleasanton, CA (2017)
 Q-Chem 5.0.2 for Intel X86 EM64T Linux

User input:
--------------------------------------------------------------
$molecule
0 2
C        1.3274956951    0.0140067812    0.0229865284
C        0.5619765909   -0.9763582015    0.8069854371
C       -0.7908486313   -0.9677433381    0.8238110636
C       -1.5457866721    0.1169311505    0.2164823651
C       -0.9249476557    1.1174589417   -0.4409778531
N        0.4677813203    1.1024524166   -0.7105698846
H        2.2422554878    0.4022316366    0.4762899542
H        1.1251655670   -1.6818633271    1.4146285797
H       -1.3290477846   -1.7094985946    1.4062270960
H       -2.6126900720    0.1855749833    0.4017185204
H       -1.4292314527    2.0342469995   -0.7309663062
C        1.1208330676    0.0991195199   -1.4232777699
H        1.7870445397    0.2634410319   -2.2633377306
$end

$rem
method                b3lyp
basis                 6-31+g(d,p)
unrestricted          true
symmetry              off
sym_ignore            true
incdft                false
incfock               0
scf_convergence       8
thresh                14
jobtype               sp
scf_guess             core
scf_guess_mix         5
scf_algorithm         diis
max_scf_cycles        100
$end

--------------------------------------------------------------

             Standard Nuclear Orientation (Angstroms)
    I     Atom           X                Y                Z
 ----------------------------------------------------------------
    1      C       1.3274956951     0.0140067812     0.0229865284
    2      C       0.5619765909    -0.9763582015     0.8069854371
    3      C      -0.7908486313    -0.9677433381     0.8238110636
    4      C      -1.5457866721     0.1169311505     0.2164823651
    5      C      -0.9249476557     1.1174589417    -0.4409778531
    6      N       0.4677813203     1.1024524166    -0.7105698846
    7      H       2.2422554878     0.4022316366     0.4762899542
    8      H       1.1251655670    -1.6818633271     1.4146285797
    9      H      -1.3290477846    -1.7094985946     1.4062270960
   10      H      -2.6126900720     0.1855749833     0.4017185204
   11      H      -1.4292314527     2.0342469995    -0.7309663062
   12      C       1.1208330676     0.0991195199    -1.4232777699
   13      H       1.7870445397     0.2634410319    -2.2633377306
 ----------------------------------------------------------------

   22    -286.8624820771      6.21E-09 Convergence criterion met
 Total energy in the final basis set = -286.86248208

                    Orbital Energies (a.u.)
 --------------------------------------------------------------

 Alpha MOs
 -- Occupied --
-14.372 -10.241 -10.234 -10.231 -10.207 -10.204 -10.200  -0.993
 -0.817  -0.784  -0.672  -0.648  -0.578  -0.529  -0.502  -0.487
 -0.460  -0.433  -0.399  -0.378  -0.366  -0.319  -0.286  -0.233
 -0.200

 Beta MOs
 -- Occupied --
-14.369 -10.242 -10.230 -10.221 -10.206 -10.204 -10.200  -0.984
 -0.815  -0.781  -0.665  -0.647  -0.564  -0.524  -0.496  -0.485
 -0.451  -0.427  -0.394  -0.375  -0.364  -0.308  -0.280  -0.219

          Ground-State Mulliken Net Atomic Charges

     Atom                 Charge (a.u.)    Spin (a.u.)
  --------------------------------------------------------
      1 C                    -0.075542      -0.090172
      2 C                     0.004767       0.039372
      3 C                    -0.220049      -0.020485
      4 C                     0.094200       0.081362
      5 C                    -0.215655      -0.101564
      6 N                    -0.161109       0.123999
      7 H                     0.142601       0.005727
      8 H                     0.130862      -0.001306
      9 H                     0.126706       0.000533
     10 H                     0.127143       0.002714
     11 H                     0.135520      -0.001416
     12 C                    -0.231011       0.956078
     13 H                     0.141566       0.005159
  --------------------------------------------------------
  Sum of atomic charges =    -0.000000

                    Cartesian Multipole Moments
 -----------------------------------------------------------------
    Charge (ESU x 10^10)
                 0.0000
    Dipole Moment (Debye)
         X       0.0680      Y      -0.5019      Z       0.6504
       Tot       0.8243
    Quadrupole Moments (Debye-Ang)
        XX     -36.7099     XY      -1.4814     YY     -42.9413
        XZ      -0.8132     YZ      -2.6023     ZZ     -41.9077

 Total job time:  49.92s(wall), 112.62s(cpu)
        *  Thank you very much for using Q-Chem.  Have a nice day.  *
