 Q-Chem 5.0, Q-Chem, Inc., Pleasanton, CA (2017)
 Q-Chem 5.0.2 for Intel X86 EM64T Linux

User input:
--------------------------------------------------------------
$molecule
0 2
C        1.2772185908   -0.0116477471    0.0530294759
C        0.5676099322   -0.9802866635    0.9168976817
C       -0.8211106732   -0.9434253186    0.9447223926
C       -1.4497534792   -0.0014459898    0.1399493239
C       -0.6046727323    0.9133089610   -0.6590701187
N        0.7225684459    1.3998354864   -0.0929288259
H        2.3625149957   -0.0013900242    0.1228996299
H        1.1449432867   -1.6674583659    1.5260611799
H       -1.3915846171   -1.6216565236    1.5723928486
H       -2.5288623348    0.0949206640    0.0877033120
H       -1.1182178574    1.7133001153   -1.1873032643
C        0.6919274485    0.4617051209   -1.2286403946
H        1.1474189936    0.6442402853   -2.1957132412
$end

$rem
method                b3lyp
basis                 6-31+g(d,p)
unrestricted          true
symmetry              off
sym_ignore            true
incdft                false
incfock               0
scf_convergence       6
thresh                14
jobtype               sp
scf_guess             read
scf_algorithm         diis
max_scf_cycles        100
stability_analysis    true
max_cis_cycles        100
cis_n_roots           4
$end

--------------------------------------------------------------

             Standard Nuclear Orientation (Angstroms)
    I     Atom           X                Y                Z
 ----------------------------------------------------------------
    1      C       1.2772185908    -0.0116477471     0.0530294759
    2      C       0.5676099322    -0.9802866635     0.9168976817
    3      C      -0.8211106732    -0.9434253186     0.9447223926
    4      C      -1.4497534792    -0.0014459898     0.1399493239
    5      C      -0.6046727323     0.9133089610    -0.6590701187
    6      N       0.7225684459     1.3998354864    -0.0929288259
    7      H       2.3625149957    -0.0013900242     0.1228996299
    8      H       1.1449432867    -1.6674583659     1.5260611799
    9      H      -1.3915846171    -1.6216565236     1.5723928486
   10      H      -2.5288623348     0.0949206640     0.0877033120
   11      H      -1.1182178574     1.7133001153    -1.1873032643
   12      C       0.6919274485     0.4617051209    -1.2286403946
   13      H       1.1474189936     0.6442402853    -2.1957132412
 ----------------------------------------------------------------

    2    -286.8779063320      1.63E-09 Convergence criterion met
 Total energy in the final basis set = -286.87790633

         TDDFT/TDA Excitation Energies
 ---------------------------------------------------

 Excited state   1: excitation energy (eV) =    2.9995
 Total energy for state  1:                  -286.76767735 au
    <S**2>     :  0.7759
    Trans. Mom.: -0.1608 X   0.0763 Y  -0.0616 Z
    Strength   :     0.0026059924
    S(  1) --> V(  1) amplitude =  0.2942 alpha
    D( 24) --> S(  1) amplitude =  0.9430 beta

 Excited state   2: excitation energy (eV) =    3.8389
 Total energy for state  2:                  -286.73683069 au
    <S**2>     :  0.7726
    Trans. Mom.:  0.3280 X  -0.1584 Y   0.1246 Z
    Strength   :     0.0139365975
    S(  1) --> V(  1) amplitude =  0.8673 alpha
    D( 22) --> S(  1) amplitude = -0.3457 beta
    D( 24) --> S(  1) amplitude = -0.3041 beta

 Excited state   3: excitation energy (eV) =    4.1250
 Total energy for state  3:                  -286.72631419 au
    <S**2>     :  0.7910
    Trans. Mom.:  0.0095 X   0.0024 Y  -0.0025 Z
    Strength   :     0.0000103183
    D( 23) --> S(  1) amplitude =  0.9947 beta

 Excited state   4: excitation energy (eV) =    4.4794
 Total energy for state  4:                  -286.71329158 au
    <S**2>     :  0.7850
    Trans. Mom.:  0.0298 X  -0.0147 Y   0.0119 Z
    Strength   :     0.0001362988
    S(  1) --> V(  2) amplitude =  0.9799 alpha

 ---------------------------------------------------

                    Orbital Energies (a.u.)
 --------------------------------------------------------------

 Alpha MOs
 -- Occupied --
-14.359 -10.240 -10.240 -10.238 -10.208 -10.208 -10.198  -1.024
 -0.819  -0.761  -0.644  -0.637  -0.615  -0.542  -0.486  -0.468
 -0.466  -0.420  -0.397  -0.366  -0.364  -0.348  -0.297  -0.253
 -0.192

 Beta MOs
 -- Occupied --
-14.357 -10.241 -10.241 -10.236 -10.201 -10.200 -10.200  -1.021
 -0.808  -0.751  -0.635  -0.629  -0.611  -0.539  -0.481  -0.466
 -0.460  -0.416  -0.395  -0.362  -0.351  -0.324  -0.293  -0.249

          Ground-State Mulliken Net Atomic Charges

     Atom                 Charge (a.u.)    Spin (a.u.)
  --------------------------------------------------------
      1 C                    -0.183846      -0.073269
      2 C                    -0.090840       0.673586
      3 C                    -0.099302      -0.311108
      4 C                    -0.089050       0.672739
      5 C                    -0.185823      -0.072149
      6 N                    -0.184554       0.090809
      7 H                     0.135286       0.001380
      8 H                     0.129782      -0.031042
      9 H                     0.129411       0.009189
     10 H                     0.129789      -0.031090
     11 H                     0.135849       0.001386
     12 C                     0.030692       0.072156
     13 H                     0.142607      -0.002586
  --------------------------------------------------------
  Sum of atomic charges =    -0.000000

                    Cartesian Multipole Moments
 -----------------------------------------------------------------
    Charge (ESU x 10^10)
                -0.0000
    Dipole Moment (Debye)
         X      -0.3510      Y      -1.3357      Z      -0.8160
       Tot       1.6041
    Quadrupole Moments (Debye-Ang)
        XX     -37.1809     XY      -2.9157     YY     -45.2502
        XZ      -0.4693     YZ      -4.2186     ZZ     -39.9844

 Total job time:  253.72s(wall), 201.73s(cpu)
        *  Thank you very much for using Q-Chem.  Have a nice day.  *
