 Q-Chem 5.0, Q-Chem, Inc., Pleasanton, CA (2017)
 Q-Chem 5.0.2 for Intel X86 EM64T Linux

User input:
--------------------------------------------------------------
$molecule
0 2
C        1.2762168731   -0.0345091358    0.0308777796
C        0.5640206778   -1.0674329586    0.8147314180
C       -0.8212809828   -1.0082333104    0.8734540096
C       -1.4462579644    0.0127037076    0.1708127980
C       -0.5997189955    0.9721359415   -0.5712834224
N        0.7458582198    1.3941060175    0.0094843319
H        2.3629473639   -0.0440276529    0.0859408862
H        1.1396109545   -1.8206862799    1.3424277946
H       -1.3936152337   -1.7289444646    1.4511603407
H       -2.5230739528    0.1455464369    0.1680659076
H       -1.1082535901    1.8193499802   -1.0270940241
C        0.6792342969    0.5509959340   -1.1962958251
H        1.1243123334    0.8089957843   -2.1522819943
****
C        1.3037862433    0.7963403226   -0.7235793355
C        0.4950568881   -1.2759114272    0.5013976081
C       -0.8220657155   -0.9830644847    0.6937771954
C       -1.5121576069    0.2120058749    0.2812764614
C       -0.9987761215    1.3071326290   -0.3891130854
N        0.2335113074    1.6160616896   -0.8542268235
H        2.2046724849    1.2286071951   -1.1646275069
H        0.8542293750   -2.2310758640    0.8792139363
H       -1.4267605472   -1.7241905972    1.2126411201
H       -2.5705188659    0.2641755927    0.5251757819
H       -1.7230536602    2.0985482700   -0.5945782512
C        1.4775470865   -0.4510524894   -0.1552250289
H        2.4845291321   -0.8575767114   -0.2121320717
$end

$rem
method                b3lyp
basis                 6-31g(d)
unrestricted          true
symmetry              off
sym_ignore            true
incdft                false
incfock               0
scf_convergence       8
thresh                14
jobtype               fsm
scf_guess             core
scf_guess_mix         5
scf_algorithm         diis
max_scf_cycles        100
fsm_nnode             21
fsm_ngrad             6
fsm_mode              2
fsm_opt_mode          2
$end

--------------------------------------------------------------

   20    -286.8567772848      2.21E-09 Convergence criterion met
 Total energy in the final basis set = -286.85677728
   21    -286.9243191265      9.22E-09 Convergence criterion met
 Total energy in the final basis set = -286.92431913
   20    -286.8480528227      4.57E-09 Convergence criterion met
 Total energy in the final basis set = -286.84805282
   20    -286.8517864598      2.65E-09 Convergence criterion met
 Total energy in the final basis set = -286.85178646
   23    -286.9207870350      6.71E-09 Convergence criterion met
 Total energy in the final basis set = -286.92078703
   23    -286.9218952086      6.14E-09 Convergence criterion met
 Total energy in the final basis set = -286.92189521
   19    -286.8361696324      9.24E-09 Convergence criterion met
 Total energy in the final basis set = -286.83616963
   20    -286.8419394611      3.15E-09 Convergence criterion met
 Total energy in the final basis set = -286.72502868
   24    -286.7265596410      4.75E-09 Convergence criterion met
 Total energy in the final basis set = -286.72655964
   23    -286.7250562503      5.96E-09 Convergence criterion met
 Total energy in the final basis set = -286.72505625
   24    -286.7265335997      5.90E-09 Convergence criterion met
 Total energy in the final basis set = -286.72653360
   23    -286.7250978174      5.64E-09 Convergence criterion met
 Total energy in the final basis set = -286.72509782
   24    -286.7264942332      5.99E-09 Convergence criterion met
 Total energy in the final basis set = -286.72649423
   23    -286.7251380849      5.37E-09 Convergence criterion met
 Total energy in the final basis set = -286.72513808
   24    -286.7264561340      6.13E-09 Convergence criterion met
 Total energy in the final basis set = -286.72645613

                    Orbital Energies (a.u.)
 --------------------------------------------------------------

 Alpha MOs
 -- Occupied --
-14.366 -10.251 -10.237 -10.236 -10.223 -10.187 -10.178  -1.004
 -0.805  -0.761  -0.646  -0.622  -0.589  -0.529  -0.479  -0.458
 -0.442  -0.413  -0.397  -0.366  -0.331  -0.324  -0.296  -0.199
 -0.173

 Beta MOs
 -- Occupied --
-14.364 -10.250 -10.236 -10.234 -10.216 -10.181 -10.180  -1.000
 -0.795  -0.751  -0.633  -0.618  -0.583  -0.526  -0.474  -0.453
 -0.438  -0.408  -0.393  -0.358  -0.316  -0.304  -0.291  -0.193

          Ground-State Mulliken Net Atomic Charges

     Atom                 Charge (a.u.)    Spin (a.u.)
  --------------------------------------------------------
      1 C                    -0.079674       0.012441
      2 C                    -0.106426       0.535628
      3 C                    -0.136970      -0.166604
      4 C                    -0.074990       0.482227
      5 C                    -0.046298       0.006939
      6 N                    -0.317632       0.064140
      7 H                     0.174606      -0.001449
      8 H                     0.149522      -0.027673
      9 H                     0.131680       0.014552
     10 H                     0.133525      -0.024008
     11 H                     0.150955       0.003177
     12 C                    -0.147187       0.108845
     13 H                     0.168891      -0.008213
  --------------------------------------------------------
  Sum of atomic charges =     0.000000

                    Cartesian Multipole Moments
 -----------------------------------------------------------------
    Charge (ESU x 10^10)
                -0.0000
    Dipole Moment (Debye)
         X       0.0875      Y      -1.3732      Z      -0.1422
       Tot       1.3834
    Quadrupole Moments (Debye-Ang)
        XX     -36.1442     XY      -3.2355     YY     -41.6087
        XZ      -0.6246     YZ      -0.7388     ZZ     -42.8382

             Standard Nuclear Orientation (Angstroms)
    I     Atom           X                Y                Z
 ----------------------------------------------------------------
    1      C       1.2905283460     0.2925145518     0.2322179982
    2      C       0.5843643540    -0.9405500205     0.7767208684
    3      C      -0.8129838428    -0.9359837358     0.8701676080
    4      C      -1.4738120552     0.1258475996     0.2961946391
    5      C      -0.7014850826     0.9989361257    -0.5993071227
    6      N       0.6287728206     1.4935101414    -0.3226449842
    7      H       2.3294102039     0.6674707620     0.2838752871
    8      H       1.0845957191    -1.9176712039     0.8824582508
    9      H      -1.3601990595    -1.7889170671     1.2741348451
   10      H      -2.5459127439     0.2609897131     0.3748182401
   11      H      -1.3120980779     1.8127054557    -1.0194981861
   12      C       0.7696962707     0.2027536176    -1.1656138614
   13      H       1.4690950076    -0.2985516535    -1.8827365923
 ----------------------------------------------------------------

 Total job time:  3255.98s(wall), 4975.31s(cpu)
        *  Thank you very much for using Q-Chem.  Have a nice day.  *
