 Q-Chem 5.0, Q-Chem, Inc., Pleasanton, CA (2017)
 Q-Chem 5.0.2 for Intel X86 EM64T Linux

User input:
--------------------------------------------------------------
$molecule
0 2
C        1.2736732341   -0.0534242323    0.0027283585
C        0.5501548232   -0.9936974482    0.8981708969
C       -0.8009069568   -0.9377320547    0.9572166765
C       -1.4793165355    0.0525634484    0.1618388328
C       -0.7614180360    1.0566263169   -0.4528846233
N        0.6475351660    1.3126029528   -0.2875465920
H        2.3384218916    0.0591125103    0.2050441740
H        1.1341452864   -1.6663502848    1.5181221891
H       -1.3706767583   -1.6128637231    1.5886508741
H       -2.5553092139    0.0228541139    0.0284397844
H       -1.2640146615    1.8435008099   -1.0076328227
C        0.8544953604    0.3346238491   -1.3447408673
H        1.3831882603    0.5552380280   -2.2666198908
$end

$rem
method                b3lyp
basis                 6-31+g(d,p)
unrestricted          true
symmetry              off
sym_ignore            true
incdft                false
incfock               0
scf_convergence       8
thresh                14
jobtype               rpath
scf_guess             core
scf_guess_mix         5
scf_algorithm         diis
max_scf_cycles        100
rpath_direction       1
rpath_tol_displacement 1000
rpath_max_cycles      50
geom_opt_max_cycles   300
geom_opt_hessian      read
$end

--------------------------------------------------------------

   22    -286.8424829065      8.34E-09 Convergence criterion met
 Total energy in the final basis set = -286.84248291
   22    -286.8436030286      6.87E-09 Convergence criterion met
 Total energy in the final basis set = -286.84360303
   22    -286.8429498911      7.65E-09 Convergence criterion met
 Total energy in the final basis set = -286.84294989
   22    -286.8436130870      8.15E-09 Convergence criterion met
 Total energy in the final basis set = -286.84361309
   22    -286.8456374500      8.07E-09 Convergence criterion met
 Total energy in the final basis set = -286.84563745
   22    -286.8446062330      5.68E-09 Convergence criterion met
 Total energy in the final basis set = -286.84460623
   22    -286.8456755052      7.43E-09 Convergence criterion met
 Total energy in the final basis set = -286.84567551
   22    -286.8470222916      5.26E-09 Convergence criterion met
 Total energy in the final basis set = -286.87758744
   20    -286.8778968210      3.07E-09 Convergence criterion met
 Total energy in the final basis set = -286.87789682
   20    -286.8778367286      2.60E-09 Convergence criterion met
 Total energy in the final basis set = -286.87783673
   20    -286.8779017056      2.84E-09 Convergence criterion met
 Total energy in the final basis set = -286.87790171
   20    -286.8756713921      4.07E-09 Convergence criterion met
 Total energy in the final basis set = -286.87567139
   20    -286.8779054973      2.86E-09 Convergence criterion met
 Total energy in the final basis set = -286.87790550
   20    -286.8779035054      2.76E-09 Convergence criterion met
 Total energy in the final basis set = -286.87790351
   20    -286.8779063321      2.82E-09 Convergence criterion met
 Total energy in the final basis set = -286.87790633

                    Orbital Energies (a.u.)
 --------------------------------------------------------------

 Alpha MOs
 -- Occupied --
-14.359 -10.240 -10.240 -10.238 -10.208 -10.208 -10.198  -1.024
 -0.819  -0.761  -0.644  -0.637  -0.615  -0.542  -0.486  -0.468
 -0.466  -0.420  -0.397  -0.366  -0.364  -0.348  -0.297  -0.253
 -0.192

 Beta MOs
 -- Occupied --
-14.357 -10.241 -10.241 -10.236 -10.201 -10.200 -10.200  -1.021
 -0.808  -0.751  -0.635  -0.629  -0.611  -0.539  -0.481  -0.466
 -0.460  -0.416  -0.395  -0.362  -0.351  -0.324  -0.293  -0.249

          Ground-State Mulliken Net Atomic Charges

     Atom                 Charge (a.u.)    Spin (a.u.)
  --------------------------------------------------------
      1 C                    -0.183846      -0.073268
      2 C                    -0.090840       0.673586
      3 C                    -0.099302      -0.311108
      4 C                    -0.089050       0.672738
      5 C                    -0.185823      -0.072148
      6 N                    -0.184554       0.090808
      7 H                     0.135286       0.001380
      8 H                     0.129781      -0.031042
      9 H                     0.129411       0.009189
     10 H                     0.129789      -0.031090
     11 H                     0.135849       0.001386
     12 C                     0.030692       0.072155
     13 H                     0.142607      -0.002586
  --------------------------------------------------------
  Sum of atomic charges =     0.000000

                    Cartesian Multipole Moments
 -----------------------------------------------------------------
    Charge (ESU x 10^10)
                 0.0000
    Dipole Moment (Debye)
         X      -0.3510      Y      -1.3357      Z      -0.8160
       Tot       1.6041
    Quadrupole Moments (Debye-Ang)
        XX     -37.1782     XY      -2.9098     YY     -45.2446
        XZ      -0.4662     YZ      -4.2170     ZZ     -39.9845

             Standard Nuclear Orientation (Angstroms)
    I     Atom           X                Y                Z
 ----------------------------------------------------------------
    1      C       1.2736732341    -0.0534242323     0.0027283585
    2      C       0.5501548232    -0.9936974482     0.8981708969
    3      C      -0.8009069568    -0.9377320547     0.9572166765
    4      C      -1.4793165355     0.0525634484     0.1618388328
    5      C      -0.7614180360     1.0566263169    -0.4528846233
    6      N       0.6475351660     1.3126029528    -0.2875465920
    7      H       2.3384218916     0.0591125103     0.2050441740
    8      H       1.1341452864    -1.6663502848     1.5181221891
    9      H      -1.3706767583    -1.6128637231     1.5886508741
   10      H      -2.5553092139     0.0228541139     0.0284397844
   11      H      -1.2640146615     1.8435008099    -1.0076328227
   12      C       0.8544953604     0.3346238491    -1.3447408673
   13      H       1.3831882603     0.5552380280    -2.2666198908
 ----------------------------------------------------------------

 Total job time:  8365.52s(wall), 23137.58s(cpu)
        *  Thank you very much for using Q-Chem.  Have a nice day.  *
