 Q-Chem 5.0, Q-Chem, Inc., Pleasanton, CA (2017)
 Q-Chem 5.0.2 for Intel X86 EM64T Linux

User input:
--------------------------------------------------------------
$molecule
0 2
C        1.2762323032   -0.0344161555    0.0311421112
C        0.5639265049   -1.0674673373    0.8147103130
C       -0.8212684279   -1.0082271577    0.8734651133
C       -1.4462738638    0.0128801417    0.1709790399
C       -0.5997817113    0.9720388691   -0.5713043746
N        0.7461510193    1.3939038696    0.0092692356
H        2.3629562781   -0.0438134166    0.0861051046
H        1.1395610226   -1.8206073240    1.3425101071
H       -1.3935218229   -1.7291016916    1.4510486186
H       -2.5231111663    0.1454006781    0.1677329326
H       -1.1080484569    1.8196118488   -1.0267283693
C        0.6792492842    0.5509776372   -1.1963526825
H        1.1239290367    0.8088200381   -2.1525771491
$end

$rem
method                b3lyp
basis                 6-31g(d)
unrestricted          true
symmetry              off
sym_ignore            true
incdft                false
incfock               0
scf_convergence       8
thresh                14
jobtype               opt
scf_guess             core
scf_guess_mix         5
scf_algorithm         diis
max_scf_cycles        100
geom_opt_max_cycles   300
$end

--------------------------------------------------------------

   20    -286.8567767057      2.26E-09 Convergence criterion met
 Total energy in the final basis set = -286.85677671

             Standard Nuclear Orientation (Angstroms)
    I     Atom           X                Y                Z
 ----------------------------------------------------------------
    1      C       1.2762168731    -0.0345091358     0.0308777796
    2      C       0.5640206778    -1.0674329586     0.8147314180
    3      C      -0.8212809828    -1.0082333104     0.8734540096
    4      C      -1.4462579644     0.0127037076     0.1708127980
    5      C      -0.5997189955     0.9721359415    -0.5712834224
    6      N       0.7458582198     1.3941060175     0.0094843319
    7      H       2.3629473639    -0.0440276529     0.0859408862
    8      H       1.1396109545    -1.8206862799     1.3424277946
    9      H      -1.3936152337    -1.7289444646     1.4511603407
   10      H      -2.5230739528     0.1455464369     0.1680659076
   11      H      -1.1082535901     1.8193499802    -1.0270940241
   12      C       0.6792342969     0.5509959340    -1.1962958251
   13      H       1.1243123334     0.8089957843    -2.1522819943
 ----------------------------------------------------------------

   15    -286.8567772848      3.15E-09 Convergence criterion met
 Total energy in the final basis set = -286.85677728
 Final energy is   -286.856777284779
 **  OPTIMIZATION CONVERGED  **

                    Orbital Energies (a.u.)
 --------------------------------------------------------------

 Alpha MOs
 -- Occupied --
-14.345 -10.230 -10.230 -10.227 -10.197 -10.197 -10.187  -1.013
 -0.808  -0.751  -0.634  -0.627  -0.606  -0.533  -0.479  -0.459
 -0.455  -0.412  -0.388  -0.357  -0.353  -0.338  -0.286  -0.241
 -0.181

 Beta MOs
 -- Occupied --
-14.342 -10.231 -10.231 -10.226 -10.191 -10.189 -10.189  -1.009
 -0.798  -0.741  -0.626  -0.620  -0.601  -0.531  -0.474  -0.457
 -0.449  -0.408  -0.385  -0.354  -0.340  -0.313  -0.282  -0.237

          Ground-State Mulliken Net Atomic Charges

     Atom                 Charge (a.u.)    Spin (a.u.)
  --------------------------------------------------------
      1 C                    -0.121430      -0.064665
      2 C                    -0.051573       0.626324
      3 C                    -0.179823      -0.258878
      4 C                    -0.051670       0.626743
      5 C                    -0.121528      -0.064816
      6 N                    -0.309577       0.100994
      7 H                     0.151016       0.001191
      8 H                     0.136451      -0.030663
      9 H                     0.133651       0.009281
     10 H                     0.136486      -0.030698
     11 H                     0.151040       0.001207
     12 C                    -0.030052       0.086714
     13 H                     0.157010      -0.002735
  --------------------------------------------------------
  Sum of atomic charges =     0.000000

                    Cartesian Multipole Moments
 -----------------------------------------------------------------
    Charge (ESU x 10^10)
                 0.0000
    Dipole Moment (Debye)
         X      -0.4065      Y      -1.2443      Z      -0.8179
       Tot       1.5436
    Quadrupole Moments (Debye-Ang)
        XX     -36.4351     XY      -2.8236     YY     -42.8870
        XZ      -0.8128     YZ      -4.0913     ZZ     -39.4884

 Total job time:  128.22s(wall), 109.81s(cpu)
        *  Thank you very much for using Q-Chem.  Have a nice day.  *
