 Q-Chem 5.0, Q-Chem, Inc., Pleasanton, CA (2017)
 Q-Chem 5.0.2 for Intel X86 EM64T Linux

User input:
--------------------------------------------------------------
$molecule
0 2
C        1.3039598563    0.7965268478   -0.7228682282
C        0.4951139294   -1.2759311870    0.5015500873
C       -0.8219571704   -0.9828837305    0.6939385684
C       -1.5121013535    0.2121170641    0.2815789290
C       -0.9986928380    1.3072033124   -0.3890205457
N        0.2333656991    1.6160727984   -0.8545094442
H        2.2045231627    1.2285811855   -1.1647175560
H        0.8540334735   -2.2313644080    0.8789290893
H       -1.4267849242   -1.7242806425    1.2122957954
H       -2.5704297854    0.2642518236    0.5255433424
H       -1.7231217941    2.0982751265   -0.5952876469
C        1.4775882790   -0.4509772900   -0.1549758542
H        2.4845034657   -0.8575909002   -0.2124565365
$end

$rem
method                b3lyp
basis                 6-31g(d)
unrestricted          true
symmetry              off
sym_ignore            true
incdft                false
incfock               0
scf_convergence       8
thresh                14
jobtype               opt
scf_guess             core
scf_guess_mix         5
scf_algorithm         diis
max_scf_cycles        100
geom_opt_max_cycles   300
$end

--------------------------------------------------------------

   22    -286.9243187487      5.54E-09 Convergence criterion met
 Total energy in the final basis set = -286.92431875

             Standard Nuclear Orientation (Angstroms)
    I     Atom           X                Y                Z
 ----------------------------------------------------------------
    1      C       1.3037862433     0.7963403226    -0.7235793355
    2      C       0.4950568881    -1.2759114272     0.5013976081
    3      C      -0.8220657155    -0.9830644847     0.6937771954
    4      C      -1.5121576069     0.2120058749     0.2812764614
    5      C      -0.9987761215     1.3071326290    -0.3891130854
    6      N       0.2335113074     1.6160616896    -0.8542268235
    7      H       2.2046724849     1.2286071951    -1.1646275069
    8      H       0.8542293750    -2.2310758640     0.8792139363
    9      H      -1.4267605472    -1.7241905972     1.2126411201
   10      H      -2.5705188659     0.2641755927     0.5251757819
   11      H      -1.7230536602     2.0985482700    -0.5945782512
   12      C       1.4775470865    -0.4510524894    -0.1552250289
   13      H       2.4845291321    -0.8575767114    -0.2121320717
 ----------------------------------------------------------------

   18    -286.9243191254      2.94E-09 Convergence criterion met
 Total energy in the final basis set = -286.92431913
 Final energy is   -286.924319125380
 **  OPTIMIZATION CONVERGED  **

                    Orbital Energies (a.u.)
 --------------------------------------------------------------

 Alpha MOs
 -- Occupied --
-14.322 -10.232 -10.232 -10.212 -10.211 -10.201 -10.200  -0.922
 -0.818  -0.784  -0.693  -0.667  -0.551  -0.537  -0.518  -0.449
 -0.439  -0.414  -0.394  -0.386  -0.349  -0.322  -0.299  -0.251
 -0.162

 Beta MOs
 -- Occupied --
-14.314 -10.234 -10.233 -10.210 -10.210 -10.196 -10.196  -0.911
 -0.809  -0.777  -0.681  -0.665  -0.546  -0.535  -0.514  -0.447
 -0.438  -0.411  -0.383  -0.373  -0.348  -0.295  -0.276  -0.242

          Ground-State Mulliken Net Atomic Charges

     Atom                 Charge (a.u.)    Spin (a.u.)
  --------------------------------------------------------
      1 C                     0.035194      -0.110512
      2 C                    -0.111750       0.098226
      3 C                    -0.110807       0.089286
      4 C                    -0.131987       0.350451
      5 C                     0.036051      -0.114688
      6 N                    -0.423417       0.386931
      7 H                     0.142635       0.003299
      8 H                     0.141926      -0.006852
      9 H                     0.141973      -0.006423
     10 H                     0.134328      -0.018494
     11 H                     0.142590       0.003504
     12 C                    -0.131160       0.343442
     13 H                     0.134424      -0.018170
  --------------------------------------------------------
  Sum of atomic charges =    -0.000000

                    Cartesian Multipole Moments
 -----------------------------------------------------------------
    Charge (ESU x 10^10)
                -0.0000
    Dipole Moment (Debye)
         X      -0.2852      Y      -1.9679      Z       1.0401
       Tot       2.2441
    Quadrupole Moments (Debye-Ang)
        XX     -34.8628     XY      -1.7708     YY     -42.1730
        XZ      -1.2932     YZ      -0.1342     ZZ     -42.9654

 Total job time:  126.75s(wall), 119.78s(cpu)
        *  Thank you very much for using Q-Chem.  Have a nice day.  *
