 Q-Chem 5.0, Q-Chem, Inc., Pleasanton, CA (2017)
 Q-Chem 5.0.2 for Intel X86 EM64T Linux

User input:
--------------------------------------------------------------
$molecule
0 2
C        1.2905283460    0.2925145518    0.2322179982
C        0.5843643540   -0.9405500205    0.7767208684
C       -0.8129838428   -0.9359837358    0.8701676080
C       -1.4738120552    0.1258475996    0.2961946391
C       -0.7014850826    0.9989361257   -0.5993071227
N        0.6287728206    1.4935101414   -0.3226449842
H        2.3294102039    0.6674707620    0.2838752871
H        1.0845957191   -1.9176712039    0.8824582508
H       -1.3601990595   -1.7889170671    1.2741348451
H       -2.5459127439    0.2609897131    0.3748182401
H       -1.3120980779    1.8127054557   -1.0194981861
C        0.7696962707    0.2027536176   -1.1656138614
H        1.4690950076   -0.2985516535   -1.8827365923
$end

$rem
method                b3lyp
basis                 6-31g(d)
unrestricted          true
symmetry              off
sym_ignore            true
incdft                false
incfock               0
scf_convergence       8
thresh                14
jobtype               ts
scf_guess             read
scf_algorithm         diis
max_scf_cycles        100
geom_opt_max_cycles   500
geom_opt_dmax         100
geom_opt_tol_gradient 10
geom_opt_hessian      read
$end

--------------------------------------------------------------

    2    -286.7526137988      1.28E-09 Convergence criterion met
 Total energy in the final basis set = -286.75261380
   15    -286.7533584146      8.02E-09 Convergence criterion met
 Total energy in the final basis set = -286.75335841
   15    -286.7541835028      8.22E-09 Convergence criterion met
 Total energy in the final basis set = -286.75418350
   15    -286.7551320135      8.72E-09 Convergence criterion met
 Total energy in the final basis set = -286.75513201
   16    -286.7563965753      3.21E-09 Convergence criterion met
 Total energy in the final basis set = -286.75639658
   16    -286.7583391351      3.98E-09 Convergence criterion met
 Total energy in the final basis set = -286.75833914
   16    -286.7614129881      5.72E-09 Convergence criterion met
 Total energy in the final basis set = -286.76141299
   16    -286.7656600564      9.15E-09 Convergence criterion met
   13    -286.8199063051      3.69E-09 Convergence criterion met
 Total energy in the final basis set = -286.81990631
   13    -286.8198722169      8.79E-09 Convergence criterion met
 Total energy in the final basis set = -286.81987222
   14    -286.8199069432      8.80E-09 Convergence criterion met
 Total energy in the final basis set = -286.81990694
   10    -286.8199066529      9.92E-09 Convergence criterion met
 Total energy in the final basis set = -286.81990665
   10    -286.8199070749      6.41E-09 Convergence criterion met
 Total energy in the final basis set = -286.81990707
   14    -286.8198704200      7.79E-09 Convergence criterion met
 Total energy in the final basis set = -286.81987042

             Standard Nuclear Orientation (Angstroms)
    I     Atom           X                Y                Z
 ----------------------------------------------------------------
    1      C       1.2725553019    -0.0531773476     0.0014667590
    2      C       0.5492902231    -0.9929708636     0.8980845249
    3      C      -0.7995677563    -0.9381843530     0.9552754992
    4      C      -1.4783302433     0.0528452432     0.1612886339
    5      C      -0.7611222793     1.0568683939    -0.4493902637
    6      N       0.6494875936     1.3137527056    -0.2900699010
    7      H       2.3377983611     0.0597208230     0.2032139133
    8      H       1.1341628921    -1.6641441752     1.5196038878
    9      H      -1.3709404347    -1.6133275932     1.5864085091
   10      H      -2.5548752319     0.0219903262     0.0288267120
   11      H      -1.2628308306     1.8435374036    -1.0065175951
   12      C       0.8483086396     0.3311155715    -1.3450481605
   13      H       1.3860356248     0.5550281518    -2.2623555287
 ----------------------------------------------------------------

   14    -286.8199070872      8.17E-09 Convergence criterion met
 Total energy in the final basis set = -286.81990709
 Final energy is   -286.819907087178
 **  OPTIMIZATION CONVERGED  **

                    Orbital Energies (a.u.)
 --------------------------------------------------------------

 Alpha MOs
 -- Occupied --
-14.348 -10.236 -10.233 -10.229 -10.194 -10.193 -10.191  -0.997
 -0.808  -0.763  -0.652  -0.633  -0.584  -0.525  -0.482  -0.475
 -0.453  -0.424  -0.388  -0.360  -0.352  -0.317  -0.294  -0.223
 -0.180

 Beta MOs
 -- Occupied --
-14.347 -10.238 -10.233 -10.217 -10.193 -10.191 -10.188  -0.991
 -0.803  -0.759  -0.642  -0.632  -0.568  -0.521  -0.479  -0.470
 -0.446  -0.422  -0.385  -0.355  -0.345  -0.306  -0.284  -0.204

          Ground-State Mulliken Net Atomic Charges

     Atom                 Charge (a.u.)    Spin (a.u.)
  --------------------------------------------------------
      1 C                    -0.109118      -0.049274
      2 C                    -0.059871       0.261508
      3 C                    -0.164309      -0.152831
      4 C                    -0.072970       0.376077
      5 C                    -0.052151      -0.207068
      6 N                    -0.345022       0.036110
      7 H                     0.160829       0.017313
      8 H                     0.135723      -0.012747
      9 H                     0.136320       0.008702
     10 H                     0.136379      -0.018714
     11 H                     0.158027       0.009613
     12 C                    -0.081234       0.735856
     13 H                     0.157395      -0.004544
  --------------------------------------------------------
  Sum of atomic charges =    -0.000000

                    Cartesian Multipole Moments
 -----------------------------------------------------------------
    Charge (ESU x 10^10)
                -0.0000
    Dipole Moment (Debye)
         X      -0.2772      Y      -0.9338      Z      -0.1305
       Tot       0.9828
    Quadrupole Moments (Debye-Ang)
        XX     -35.8531     XY      -2.2434     YY     -42.8548
        XZ      -0.3770     YZ      -3.5830     ZZ     -39.6353

 Total job time:  1155.90s(wall), 2022.25s(cpu)
        *  Thank you very much for using Q-Chem.  Have a nice day.  *
