 Q-Chem 5.0, Q-Chem, Inc., Pleasanton, CA (2017)
 Q-Chem 5.0.2 for Intel X86 EM64T Linux

User input:
--------------------------------------------------------------
$molecule
0 2
C        1.2905283460    0.2925145518    0.2322179982
C        0.5843643540   -0.9405500205    0.7767208684
C       -0.8129838428   -0.9359837358    0.8701676080
C       -1.4738120552    0.1258475996    0.2961946391
C       -0.7014850826    0.9989361257   -0.5993071227
N        0.6287728206    1.4935101414   -0.3226449842
H        2.3294102039    0.6674707620    0.2838752871
H        1.0845957191   -1.9176712039    0.8824582508
H       -1.3601990595   -1.7889170671    1.2741348451
H       -2.5459127439    0.2609897131    0.3748182401
H       -1.3120980779    1.8127054557   -1.0194981861
C        0.7696962707    0.2027536176   -1.1656138614
H        1.4690950076   -0.2985516535   -1.8827365923
$end

$rem
method                b3lyp
basis                 6-31g(d)
unrestricted          true
symmetry              off
sym_ignore            true
incdft                false
incfock               0
scf_convergence       6
thresh                14
jobtype               sp
scf_guess             read
scf_algorithm         diis
max_scf_cycles        100
stability_analysis    true
max_cis_cycles        100
cis_n_roots           4
$end

--------------------------------------------------------------

             Standard Nuclear Orientation (Angstroms)
    I     Atom           X                Y                Z
 ----------------------------------------------------------------
    1      C       1.2905283460     0.2925145518     0.2322179982
    2      C       0.5843643540    -0.9405500205     0.7767208684
    3      C      -0.8129838428    -0.9359837358     0.8701676080
    4      C      -1.4738120552     0.1258475996     0.2961946391
    5      C      -0.7014850826     0.9989361257    -0.5993071227
    6      N       0.6287728206     1.4935101414    -0.3226449842
    7      H       2.3294102039     0.6674707620     0.2838752871
    8      H       1.0845957191    -1.9176712039     0.8824582508
    9      H      -1.3601990595    -1.7889170671     1.2741348451
   10      H      -2.5459127439     0.2609897131     0.3748182401
   11      H      -1.3120980779     1.8127054557    -1.0194981861
   12      C       0.7696962707     0.2027536176    -1.1656138614
   13      H       1.4690950076    -0.2985516535    -1.8827365923
 ----------------------------------------------------------------

    2    -286.7526137988      4.01E-09 Convergence criterion met
 Total energy in the final basis set = -286.75261380

         TDDFT/TDA Excitation Energies
 ---------------------------------------------------

 Excited state   1: excitation energy (eV) =    1.8014
 Total energy for state  1:                  -286.68641324 au
    <S**2>     :  0.8478
    Trans. Mom.:  0.1554 X   0.0203 Y   0.0484 Z
    Strength   :     0.0011872834
    D( 24) --> S(  1) amplitude =  0.9890 beta

 Excited state   2: excitation energy (eV) =    3.4223
 Total energy for state  2:                  -286.62684636 au
    <S**2>     :  1.2924
    Trans. Mom.:  0.1609 X  -0.1268 Y   0.1196 Z
    Strength   :     0.0047172847
    D( 24) --> V(  1) amplitude = -0.2271 alpha
    S(  1) --> V(  1) amplitude =  0.8699 alpha
    D( 22) --> S(  1) amplitude =  0.2409 beta
    D( 24) --> V(  1) amplitude = -0.2887 beta

 Excited state   3: excitation energy (eV) =    3.8018
 Total energy for state  3:                  -286.61290160 au
    <S**2>     :  2.1089
    Trans. Mom.:  0.0746 X  -0.0889 Y   0.1383 Z
    Strength   :     0.0030361990
    D( 24) --> V(  1) amplitude =  0.7170 alpha
    S(  1) --> V(  1) amplitude =  0.3342 alpha
    D( 22) --> S(  1) amplitude =  0.1634 beta
    D( 24) --> V(  1) amplitude =  0.5321 beta

 Excited state   4: excitation energy (eV) =    4.3687
 Total energy for state  4:                  -286.59206777 au
    <S**2>     :  0.8636
    Trans. Mom.: -0.1239 X   0.1156 Y  -0.0848 Z
    Strength   :     0.0038422784
    D( 23) --> S(  1) amplitude =  0.9610 beta

 ---------------------------------------------------

                    Orbital Energies (a.u.)
 --------------------------------------------------------------

 Alpha MOs
 -- Occupied --
-14.363 -10.248 -10.236 -10.233 -10.216 -10.188 -10.178  -1.004
 -0.805  -0.758  -0.644  -0.621  -0.594  -0.529  -0.480  -0.456
 -0.445  -0.414  -0.398  -0.367  -0.331  -0.324  -0.296  -0.203
 -0.174

 Beta MOs
 -- Occupied --
-14.362 -10.249 -10.234 -10.233 -10.208 -10.182 -10.181  -1.000
 -0.795  -0.748  -0.630  -0.618  -0.589  -0.526  -0.474  -0.452
 -0.441  -0.410  -0.395  -0.360  -0.318  -0.303  -0.292  -0.198

          Ground-State Mulliken Net Atomic Charges

     Atom                 Charge (a.u.)    Spin (a.u.)
  --------------------------------------------------------
      1 C                    -0.088724      -0.006765
      2 C                    -0.093934       0.572426
      3 C                    -0.145607      -0.202630
      4 C                    -0.071299       0.525370
      5 C                    -0.054794      -0.036535
      6 N                    -0.313803       0.047396
      7 H                     0.171478       0.000528
      8 H                     0.146100      -0.028992
      9 H                     0.131661       0.015263
     10 H                     0.133129      -0.026169
     11 H                     0.152506       0.003559
     12 C                    -0.135026       0.143481
     13 H                     0.168314      -0.006932
  --------------------------------------------------------
  Sum of atomic charges =    -0.000000

                    Cartesian Multipole Moments
 -----------------------------------------------------------------
    Charge (ESU x 10^10)
                 0.0000
    Dipole Moment (Debye)
         X       0.0605      Y      -1.3723      Z      -0.2314
       Tot       1.3930
    Quadrupole Moments (Debye-Ang)
        XX     -36.0384     XY      -3.2236     YY     -41.9548
        XZ      -0.5992     YZ      -0.8741     ZZ     -42.3018

 Total job time:  118.96s(wall), 89.16s(cpu)
        *  Thank you very much for using Q-Chem.  Have a nice day.  *
