 Q-Chem 5.0, Q-Chem, Inc., Pleasanton, CA (2017)
 Q-Chem 5.0.2 for Intel X86 EM64T Linux

User input:
--------------------------------------------------------------
$molecule
0 2
C        1.2725553019   -0.0531773476    0.0014667590
C        0.5492902231   -0.9929708636    0.8980845249
C       -0.7995677563   -0.9381843530    0.9552754992
C       -1.4783302433    0.0528452432    0.1612886339
C       -0.7611222793    1.0568683939   -0.4493902637
N        0.6494875936    1.3137527056   -0.2900699010
H        2.3377983611    0.0597208230    0.2032139133
H        1.1341628921   -1.6641441752    1.5196038878
H       -1.3709404347   -1.6133275932    1.5864085091
H       -2.5548752319    0.0219903262    0.0288267120
H       -1.2628308306    1.8435374036   -1.0065175951
C        0.8483086396    0.3311155715   -1.3450481605
H        1.3860356248    0.5550281518   -2.2623555287
$end

$rem
method                b3lyp
basis                 6-31+g(d,p)
unrestricted          true
symmetry              off
sym_ignore            true
incdft                false
incfock               0
scf_convergence       8
thresh                14
jobtype               ts
scf_guess             read
scf_algorithm         diis
max_scf_cycles        100
geom_opt_max_cycles   500
geom_opt_dmax         100
geom_opt_tol_gradient 10
geom_opt_hessian      read
$end

--------------------------------------------------------------

    2    -286.8424492415      9.81E-11 Convergence criterion met
 Total energy in the final basis set = -286.84244924
   13    -286.8424828909      7.27E-09 Convergence criterion met
 Total energy in the final basis set = -286.84248289

             Standard Nuclear Orientation (Angstroms)
    I     Atom           X                Y                Z
 ----------------------------------------------------------------
    1      C       1.2736732341    -0.0534242323     0.0027283585
    2      C       0.5501548232    -0.9936974482     0.8981708969
    3      C      -0.8009069568    -0.9377320547     0.9572166765
    4      C      -1.4793165355     0.0525634484     0.1618388328
    5      C      -0.7614180360     1.0566263169    -0.4528846233
    6      N       0.6475351660     1.3126029528    -0.2875465920
    7      H       2.3384218916     0.0591125103     0.2050441740
    8      H       1.1341452864    -1.6663502848     1.5181221891
    9      H      -1.3706767583    -1.6128637231     1.5886508741
   10      H      -2.5553092139     0.0228541139     0.0284397844
   11      H      -1.2640146615     1.8435008099    -1.0076328227
   12      C       0.8544953604     0.3346238491    -1.3447408673
   13      H       1.3831882603     0.5552380280    -2.2666198908
 ----------------------------------------------------------------

    8    -286.8424829065      5.56E-09 Convergence criterion met
 Total energy in the final basis set = -286.84248291
 Final energy is   -286.842482906548
 **  OPTIMIZATION CONVERGED  **

                    Orbital Energies (a.u.)
 --------------------------------------------------------------

 Alpha MOs
 -- Occupied --
-14.363 -10.247 -10.244 -10.241 -10.206 -10.205 -10.202  -1.010
 -0.819  -0.774  -0.662  -0.643  -0.594  -0.534  -0.490  -0.486
 -0.464  -0.433  -0.398  -0.369  -0.363  -0.328  -0.305  -0.235
 -0.191

 Beta MOs
 -- Occupied --
-14.362 -10.250 -10.244 -10.230 -10.204 -10.202 -10.200  -1.004
 -0.814  -0.770  -0.652  -0.642  -0.578  -0.530  -0.487  -0.481
 -0.456  -0.431  -0.396  -0.365  -0.356  -0.318  -0.295  -0.217

          Ground-State Mulliken Net Atomic Charges

     Atom                 Charge (a.u.)    Spin (a.u.)
  --------------------------------------------------------
      1 C                    -0.126942      -0.107378
      2 C                    -0.006339       0.304401
      3 C                    -0.172486      -0.194399
      4 C                     0.066145       0.421033
      5 C                    -0.255655      -0.256057
      6 N                    -0.134311       0.039467
      7 H                     0.145415       0.017943
      8 H                     0.128423      -0.012979
      9 H                     0.131681       0.008618
     10 H                     0.129077      -0.019086
     11 H                     0.143644       0.008965
     12 C                    -0.192968       0.793671
     13 H                     0.144318      -0.004201
  --------------------------------------------------------
  Sum of atomic charges =    -0.000000

                    Cartesian Multipole Moments
 -----------------------------------------------------------------
    Charge (ESU x 10^10)
                -0.0000
    Dipole Moment (Debye)
         X      -0.2130      Y      -0.9657      Z      -0.1848
       Tot       1.0060
    Quadrupole Moments (Debye-Ang)
        XX     -36.7039     XY      -2.3429     YY     -44.3838
        XZ      -0.4949     YZ      -4.0266     ZZ     -41.0957

 Total job time:  74.57s(wall), 172.31s(cpu)
        *  Thank you very much for using Q-Chem.  Have a nice day.  *
