 Q-Chem 5.0, Q-Chem, Inc., Pleasanton, CA (2017)
 Q-Chem 5.0.2 for Intel X86 EM64T Linux

User input:
--------------------------------------------------------------
$molecule
0 2
C        1.2725553019   -0.0531773476    0.0014667590
C        0.5492902231   -0.9929708636    0.8980845249
C       -0.7995677563   -0.9381843530    0.9552754992
C       -1.4783302433    0.0528452432    0.1612886339
C       -0.7611222793    1.0568683939   -0.4493902637
N        0.6494875936    1.3137527056   -0.2900699010
H        2.3377983611    0.0597208230    0.2032139133
H        1.1341628921   -1.6641441752    1.5196038878
H       -1.3709404347   -1.6133275932    1.5864085091
H       -2.5548752319    0.0219903262    0.0288267120
H       -1.2628308306    1.8435374036   -1.0065175951
C        0.8483086396    0.3311155715   -1.3450481605
H        1.3860356248    0.5550281518   -2.2623555287
$end

$rem
method                b3lyp
basis                 6-31+g(d,p)
unrestricted          true
symmetry              off
sym_ignore            true
incdft                false
incfock               0
scf_convergence       8
thresh                14
jobtype               freq
scf_guess             read
scf_algorithm         diis
max_scf_cycles        100
$end

--------------------------------------------------------------

             Standard Nuclear Orientation (Angstroms)
    I     Atom           X                Y                Z
 ----------------------------------------------------------------
    1      C       1.2725553019    -0.0531773476     0.0014667590
    2      C       0.5492902231    -0.9929708636     0.8980845249
    3      C      -0.7995677563    -0.9381843530     0.9552754992
    4      C      -1.4783302433     0.0528452432     0.1612886339
    5      C      -0.7611222793     1.0568683939    -0.4493902637
    6      N       0.6494875936     1.3137527056    -0.2900699010
    7      H       2.3377983611     0.0597208230     0.2032139133
    8      H       1.1341628921    -1.6641441752     1.5196038878
    9      H      -1.3709404347    -1.6133275932     1.5864085091
   10      H      -2.5548752319     0.0219903262     0.0288267120
   11      H      -1.2628308306     1.8435374036    -1.0065175951
   12      C       0.8483086396     0.3311155715    -1.3450481605
   13      H       1.3860356248     0.5550281518    -2.2623555287
 ----------------------------------------------------------------

    2    -286.8424492415      3.93E-10 Convergence criterion met
 Total energy in the final basis set = -286.84244924

                    Orbital Energies (a.u.)
 --------------------------------------------------------------

 Alpha MOs
 -- Occupied --
-14.363 -10.248 -10.243 -10.241 -10.206 -10.205 -10.202  -1.010
 -0.820  -0.774  -0.662  -0.643  -0.594  -0.534  -0.490  -0.485
 -0.464  -0.433  -0.398  -0.369  -0.363  -0.328  -0.305  -0.235
 -0.192

 Beta MOs
 -- Occupied --
-14.362 -10.250 -10.244 -10.229 -10.204 -10.202 -10.200  -1.004
 -0.815  -0.770  -0.652  -0.642  -0.578  -0.530  -0.486  -0.480
 -0.457  -0.431  -0.395  -0.365  -0.356  -0.318  -0.295  -0.217

          Ground-State Mulliken Net Atomic Charges

     Atom                 Charge (a.u.)    Spin (a.u.)
  --------------------------------------------------------
      1 C                    -0.127686      -0.105714
      2 C                    -0.006002       0.301252
      3 C                    -0.172357      -0.193013
      4 C                     0.067988       0.421337
      5 C                    -0.256059      -0.253890
      6 N                    -0.134625       0.039397
      7 H                     0.145341       0.017661
      8 H                     0.128489      -0.012851
      9 H                     0.131648       0.008573
     10 H                     0.129340      -0.019136
     11 H                     0.143604       0.008870
     12 C                    -0.193994       0.790762
     13 H                     0.144315      -0.003249
  --------------------------------------------------------
  Sum of atomic charges =     0.000000

                    Cartesian Multipole Moments
 -----------------------------------------------------------------
    Charge (ESU x 10^10)
                -0.0000
    Dipole Moment (Debye)
         X      -0.2241      Y      -0.9672      Z      -0.1631
       Tot       1.0061
    Quadrupole Moments (Debye-Ang)
        XX     -36.6951     XY      -2.3380     YY     -44.3822
        XZ      -0.4798     YZ      -4.0036     ZZ     -41.1321

 Frequency:      -619.89                 296.77                 350.29
 Force Cnst:      1.4258                 0.1716                 0.1994
 Red. Mass:       6.2978                 3.3069                 2.7574
 IR Intens:        3.847                  1.475                  3.467
 Frequency:       520.24                 551.16                 596.02
 Force Cnst:      0.6210                 0.9458                 0.6172
 Red. Mass:       3.8945                 5.2844                 2.9488
 IR Intens:       10.816                  7.088                 16.701
 Frequency:       636.21                 704.99                 747.34
 Force Cnst:      0.7076                 0.4255                 0.5500
 Red. Mass:       2.9673                 1.4529                 1.6712
 IR Intens:       14.461                 92.646                 24.078
 Frequency:       782.94                 885.16                 910.37
 Force Cnst:      0.5151                 1.0927                 1.1902
 Red. Mass:       1.4262                 2.3670                 2.4375
 IR Intens:        4.222                 49.681                  2.566
 Frequency:       937.51                 957.24                 978.51
 Force Cnst:      0.7912                 0.7215                 2.5979
 Red. Mass:       1.5279                 1.3363                 4.6051
 IR Intens:        1.055                  2.672                 11.508
 Frequency:       990.30                1047.31                1051.54
 Force Cnst:      2.4057                 1.0178                 1.1791
 Red. Mass:       4.1635                 1.5750                 1.8099
 IR Intens:        2.040                  6.976                  2.299
 Frequency:      1093.81                1172.61                1223.32
 Force Cnst:      0.9753                 0.9143                 1.2067
 Red. Mass:       1.3835                 1.1286                 1.3685
 IR Intens:       20.560                  2.580                  7.529
 Frequency:      1264.04                1366.20                1412.14
 Force Cnst:      1.5910                 1.6130                 2.6359
 Red. Mass:       1.6901                 1.4667                 2.2435
 IR Intens:        3.623                  3.879                  4.146
 Frequency:      1449.56                1490.47                1646.18
 Force Cnst:      2.1463                 4.8747                 7.8377
 Red. Mass:       1.7337                 3.7244                 4.9089
 IR Intens:        0.639                  6.967                  3.116
 Frequency:      3133.55                3176.09                3184.61
 Force Cnst:      6.2853                 6.5002                 6.4865
 Red. Mass:       1.0864                 1.0937                 1.0855
 IR Intens:       13.792                 10.619                  4.579
 Frequency:      3191.51                3206.11                3214.26
 Force Cnst:      6.5313                 6.6326                 6.6801
 Red. Mass:       1.0883                 1.0952                 1.0974
 IR Intens:        4.161                 20.497                  7.549

 STANDARD THERMODYNAMIC QUANTITIES AT   298.15 K  AND     1.00 ATM

   This Molecule has  1 Imaginary Frequencies
   Zero point vibrational energy:       63.142 kcal/mol

   Atom    1 Element C  Has Mass   12.00000
   Atom    2 Element C  Has Mass   12.00000
   Atom    3 Element C  Has Mass   12.00000
   Atom    4 Element C  Has Mass   12.00000
   Atom    5 Element C  Has Mass   12.00000
   Atom    6 Element N  Has Mass   14.00307
   Atom    7 Element H  Has Mass    1.00783
   Atom    8 Element H  Has Mass    1.00783
   Atom    9 Element H  Has Mass    1.00783
   Atom   10 Element H  Has Mass    1.00783
   Atom   11 Element H  Has Mass    1.00783
   Atom   12 Element C  Has Mass   12.00000
   Atom   13 Element H  Has Mass    1.00783
   Molecular Mass:    92.050050 amu
   Principal axes and moments of inertia in amu*Bohr^2:
                             1           2           3
    Eigenvalues --      363.82058   488.76174   744.05747
          X               0.58585     0.79621     0.15109
          Y               0.56201    -0.53347     0.63210
          Z              -0.58389     0.28540     0.76001
   Rotational Symmetry Number is   1
   The Molecule is an Asymmetric Top
   Translational Enthalpy:        0.889 kcal/mol
   Rotational Enthalpy:           0.889 kcal/mol
   Vibrational Enthalpy:         64.533 kcal/mol
   gas constant (RT):             0.592 kcal/mol
   Translational Entropy:        39.471  cal/mol.K
   Rotational Entropy:           26.384  cal/mol.K
   Vibrational Entropy:           6.492  cal/mol.K

   Total Enthalpy:               66.903 kcal/mol
   Total Entropy:                72.346  cal/mol.K

 Total job time:  610.97s(wall), 557.75s(cpu)
        *  Thank you very much for using Q-Chem.  Have a nice day.  *
