 Q-Chem 5.0, Q-Chem, Inc., Pleasanton, CA (2017)
 Q-Chem 5.0.2 for Intel X86 EM64T Linux

User input:
--------------------------------------------------------------
$molecule
0 2
C        1.2905283460    0.2925145518    0.2322179982
C        0.5843643540   -0.9405500205    0.7767208684
C       -0.8129838428   -0.9359837358    0.8701676080
C       -1.4738120552    0.1258475996    0.2961946391
C       -0.7014850826    0.9989361257   -0.5993071227
N        0.6287728206    1.4935101414   -0.3226449842
H        2.3294102039    0.6674707620    0.2838752871
H        1.0845957191   -1.9176712039    0.8824582508
H       -1.3601990595   -1.7889170671    1.2741348451
H       -2.5459127439    0.2609897131    0.3748182401
H       -1.3120980779    1.8127054557   -1.0194981861
C        0.7696962707    0.2027536176   -1.1656138614
H        1.4690950076   -0.2985516535   -1.8827365923
$end

$rem
method                b3lyp
basis                 6-31g(d)
unrestricted          true
symmetry              off
sym_ignore            true
incdft                false
incfock               0
scf_convergence       8
thresh                14
jobtype               freq
scf_guess             read
scf_algorithm         diis
max_scf_cycles        100
$end

--------------------------------------------------------------

             Standard Nuclear Orientation (Angstroms)
    I     Atom           X                Y                Z
 ----------------------------------------------------------------
    1      C       1.2905283460     0.2925145518     0.2322179982
    2      C       0.5843643540    -0.9405500205     0.7767208684
    3      C      -0.8129838428    -0.9359837358     0.8701676080
    4      C      -1.4738120552     0.1258475996     0.2961946391
    5      C      -0.7014850826     0.9989361257    -0.5993071227
    6      N       0.6287728206     1.4935101414    -0.3226449842
    7      H       2.3294102039     0.6674707620     0.2838752871
    8      H       1.0845957191    -1.9176712039     0.8824582508
    9      H      -1.3601990595    -1.7889170671     1.2741348451
   10      H      -2.5459127439     0.2609897131     0.3748182401
   11      H      -1.3120980779     1.8127054557    -1.0194981861
   12      C       0.7696962707     0.2027536176    -1.1656138614
   13      H       1.4690950076    -0.2985516535    -1.8827365923
 ----------------------------------------------------------------

    2    -286.7526137988      3.28E-09 Convergence criterion met
 Total energy in the final basis set = -286.75261380

                    Orbital Energies (a.u.)
 --------------------------------------------------------------

 Alpha MOs
 -- Occupied --
-14.363 -10.248 -10.236 -10.233 -10.216 -10.188 -10.178  -1.004
 -0.805  -0.758  -0.644  -0.621  -0.594  -0.529  -0.480  -0.456
 -0.445  -0.414  -0.398  -0.367  -0.331  -0.324  -0.296  -0.203
 -0.174

 Beta MOs
 -- Occupied --
-14.362 -10.249 -10.234 -10.233 -10.208 -10.182 -10.181  -1.000
 -0.795  -0.748  -0.630  -0.618  -0.589  -0.526  -0.474  -0.452
 -0.441  -0.410  -0.395  -0.360  -0.318  -0.303  -0.292  -0.198

          Ground-State Mulliken Net Atomic Charges

     Atom                 Charge (a.u.)    Spin (a.u.)
  --------------------------------------------------------
      1 C                    -0.088724      -0.006766
      2 C                    -0.093934       0.572427
      3 C                    -0.145607      -0.202631
      4 C                    -0.071299       0.525371
      5 C                    -0.054794      -0.036537
      6 N                    -0.313803       0.047395
      7 H                     0.171478       0.000528
      8 H                     0.146099      -0.028992
      9 H                     0.131661       0.015263
     10 H                     0.133129      -0.026169
     11 H                     0.152506       0.003559
     12 C                    -0.135026       0.143484
     13 H                     0.168314      -0.006932
  --------------------------------------------------------
  Sum of atomic charges =    -0.000000

                    Cartesian Multipole Moments
 -----------------------------------------------------------------
    Charge (ESU x 10^10)
                -0.0000
    Dipole Moment (Debye)
         X       0.0605      Y      -1.3723      Z      -0.2314
       Tot       1.3930
    Quadrupole Moments (Debye-Ang)
        XX     -36.0384     XY      -3.2236     YY     -41.9548
        XZ      -0.5992     YZ      -0.8741     ZZ     -42.3018

 Frequency:      -304.46                 204.56                 385.50
 Force Cnst:      0.2286                 0.0736                 0.3245
 Red. Mass:       4.1850                 2.9849                 3.7060
 IR Intens:       31.088                 18.856                  1.682
 Frequency:       444.99                 536.92                 605.47
 Force Cnst:      0.4939                 0.6424                 0.9206
 Red. Mass:       4.2333                 3.7823                 4.2622
 IR Intens:        6.946                  6.887                  5.737
 Frequency:       609.72                 659.79                 713.54
 Force Cnst:      0.3927                 0.7747                 1.1494
 Red. Mass:       1.7930                 3.0204                 3.8316
 IR Intens:       38.757                 12.314                 13.538
 Frequency:       769.46                 805.18                 854.92
 Force Cnst:      0.4961                 0.5628                 0.6317
 Red. Mass:       1.4221                 1.4733                 1.4670
 IR Intens:       18.467                 17.038                  5.991
 Frequency:       902.23                 957.69                 977.85
 Force Cnst:      0.9226                 1.5885                 1.4267
 Red. Mass:       1.9237                 2.9396                 2.5325
 IR Intens:        6.212                  0.970                  7.006
 Frequency:       986.98                1070.00                1107.05
 Force Cnst:      0.9795                 0.9999                 1.4264
 Red. Mass:       1.7066                 1.4824                 1.9755
 IR Intens:       10.763                  8.770                  9.283
 Frequency:      1136.63                1160.94                1179.39
 Force Cnst:      1.0685                 1.1736                 1.3377
 Red. Mass:       1.4038                 1.4779                 1.6322
 IR Intens:       11.496                  1.908                  3.747
 Frequency:      1237.36                1360.92                1370.84
 Force Cnst:      3.7375                 1.4735                 1.7145
 Red. Mass:       4.1433                 1.3504                 1.5485
 IR Intens:       17.820                  6.210                 13.652
 Frequency:      1442.26                1472.55                1523.64
 Force Cnst:      1.7382                 3.1184                 3.8397
 Red. Mass:       1.4182                 2.4408                 2.8073
 IR Intens:        3.391                  6.055                  0.331
 Frequency:      2870.58                3017.38                3054.50
 Force Cnst:      5.2937                 5.8345                 5.9814
 Red. Mass:       1.0904                 1.0877                 1.0881
 IR Intens:        6.679                 12.139                 11.995
 Frequency:      3060.81                3153.68                3231.64
 Force Cnst:      5.9990                 6.3937                 6.7212
 Red. Mass:       1.0868                 1.0911                 1.0923
 IR Intens:       17.959                 12.795                 12.340

 STANDARD THERMODYNAMIC QUANTITIES AT   298.15 K  AND     1.00 ATM

   This Molecule has  1 Imaginary Frequencies
   Zero point vibrational energy:       61.279 kcal/mol

   Atom    1 Element C  Has Mass   12.00000
   Atom    2 Element C  Has Mass   12.00000
   Atom    3 Element C  Has Mass   12.00000
   Atom    4 Element C  Has Mass   12.00000
   Atom    5 Element C  Has Mass   12.00000
   Atom    6 Element N  Has Mass   14.00307
   Atom    7 Element H  Has Mass    1.00783
   Atom    8 Element H  Has Mass    1.00783
   Atom    9 Element H  Has Mass    1.00783
   Atom   10 Element H  Has Mass    1.00783
   Atom   11 Element H  Has Mass    1.00783
   Atom   12 Element C  Has Mass   12.00000
   Atom   13 Element H  Has Mass    1.00783
   Molecular Mass:    92.050050 amu
   Principal axes and moments of inertia in amu*Bohr^2:
                             1           2           3
    Eigenvalues --      360.18756   479.82823   707.43823
          X               0.64061     0.76108     0.10190
          Y               0.59371    -0.57509     0.56283
          Z              -0.48696     0.30006     0.82026
   Rotational Symmetry Number is   1
   The Molecule is an Asymmetric Top
   Translational Enthalpy:        0.889 kcal/mol
   Rotational Enthalpy:           0.889 kcal/mol
   Vibrational Enthalpy:         62.820 kcal/mol
   gas constant (RT):             0.592 kcal/mol
   Translational Entropy:        39.471  cal/mol.K
   Rotational Entropy:           26.305  cal/mol.K
   Vibrational Entropy:           7.462  cal/mol.K

   Total Enthalpy:               65.190 kcal/mol
   Total Entropy:                73.238  cal/mol.K

 Total job time:  289.61s(wall), 266.10s(cpu)
        *  Thank you very much for using Q-Chem.  Have a nice day.  *
