 Q-Chem 5.0, Q-Chem, Inc., Pleasanton, CA (2017)
 Q-Chem 5.0.2 for Intel X86 EM64T Linux

User input:
--------------------------------------------------------------
$molecule
0 2
C        1.2736732341   -0.0534242323    0.0027283585
C        0.5501548232   -0.9936974482    0.8981708969
C       -0.8009069568   -0.9377320547    0.9572166765
C       -1.4793165355    0.0525634484    0.1618388328
C       -0.7614180360    1.0566263169   -0.4528846233
N        0.6475351660    1.3126029528   -0.2875465920
H        2.3384218916    0.0591125103    0.2050441740
H        1.1341452864   -1.6663502848    1.5181221891
H       -1.3706767583   -1.6128637231    1.5886508741
H       -2.5553092139    0.0228541139    0.0284397844
H       -1.2640146615    1.8435008099   -1.0076328227
C        0.8544953604    0.3346238491   -1.3447408673
H        1.3831882603    0.5552380280   -2.2666198908
$end

$rem
method                b3lyp
basis                 6-31+g(d,p)
unrestricted          true
symmetry              off
sym_ignore            true
incdft                false
incfock               0
scf_convergence       8
thresh                14
jobtype               freq
scf_guess             read
scf_algorithm         diis
max_scf_cycles        100
$end

--------------------------------------------------------------

             Standard Nuclear Orientation (Angstroms)
    I     Atom           X                Y                Z
 ----------------------------------------------------------------
    1      C       1.2736732341    -0.0534242323     0.0027283585
    2      C       0.5501548232    -0.9936974482     0.8981708969
    3      C      -0.8009069568    -0.9377320547     0.9572166765
    4      C      -1.4793165355     0.0525634484     0.1618388328
    5      C      -0.7614180360     1.0566263169    -0.4528846233
    6      N       0.6475351660     1.3126029528    -0.2875465920
    7      H       2.3384218916     0.0591125103     0.2050441740
    8      H       1.1341452864    -1.6663502848     1.5181221891
    9      H      -1.3706767583    -1.6128637231     1.5886508741
   10      H      -2.5553092139     0.0228541139     0.0284397844
   11      H      -1.2640146615     1.8435008099    -1.0076328227
   12      C       0.8544953604     0.3346238491    -1.3447408673
   13      H       1.3831882603     0.5552380280    -2.2666198908
 ----------------------------------------------------------------

    2    -286.8424829065      3.72E-10 Convergence criterion met
 Total energy in the final basis set = -286.84248291

                    Orbital Energies (a.u.)
 --------------------------------------------------------------

 Alpha MOs
 -- Occupied --
-14.363 -10.247 -10.244 -10.241 -10.206 -10.205 -10.202  -1.010
 -0.819  -0.774  -0.662  -0.643  -0.594  -0.534  -0.490  -0.486
 -0.464  -0.433  -0.398  -0.369  -0.363  -0.328  -0.305  -0.235
 -0.191

 Beta MOs
 -- Occupied --
-14.362 -10.250 -10.244 -10.230 -10.204 -10.202 -10.200  -1.004
 -0.814  -0.770  -0.652  -0.642  -0.578  -0.530  -0.487  -0.481
 -0.456  -0.431  -0.396  -0.365  -0.356  -0.318  -0.295  -0.217

          Ground-State Mulliken Net Atomic Charges

     Atom                 Charge (a.u.)    Spin (a.u.)
  --------------------------------------------------------
      1 C                    -0.126942      -0.107379
      2 C                    -0.006339       0.304403
      3 C                    -0.172486      -0.194400
      4 C                     0.066144       0.421033
      5 C                    -0.255655      -0.256058
      6 N                    -0.134311       0.039467
      7 H                     0.145415       0.017943
      8 H                     0.128423      -0.012979
      9 H                     0.131681       0.008618
     10 H                     0.129077      -0.019086
     11 H                     0.143644       0.008965
     12 C                    -0.192968       0.793673
     13 H                     0.144318      -0.004201
  --------------------------------------------------------
  Sum of atomic charges =    -0.000000

                    Cartesian Multipole Moments
 -----------------------------------------------------------------
    Charge (ESU x 10^10)
                -0.0000
    Dipole Moment (Debye)
         X      -0.2130      Y      -0.9657      Z      -0.1848
       Tot       1.0060
    Quadrupole Moments (Debye-Ang)
        XX     -36.7039     XY      -2.3428     YY     -44.3838
        XZ      -0.4949     YZ      -4.0266     ZZ     -41.0957

 Frequency:      -622.33                 298.36                 349.91
 Force Cnst:      1.4475                 0.1718                 0.1960
 Red. Mass:       6.3433                 3.2759                 2.7164
 IR Intens:        3.832                  1.413                  3.867
 Frequency:       519.71                 550.59                 590.66
 Force Cnst:      0.5964                 0.9355                 0.5759
 Red. Mass:       3.7476                 5.2375                 2.8018
 IR Intens:       12.450                  7.628                 17.949
 Frequency:       634.58                 702.04                 738.84
 Force Cnst:      0.6807                 0.4274                 0.5515
 Red. Mass:       2.8690                 1.4717                 1.7146
 IR Intens:       14.878                 92.268                 23.380
 Frequency:       779.65                 879.59                 909.39
 Force Cnst:      0.5126                 1.0960                 1.0716
 Red. Mass:       1.4313                 2.4044                 2.1994
 IR Intens:        3.908                 47.753                  2.321
 Frequency:       934.50                 953.90                 978.53
 Force Cnst:      0.8352                 0.7195                 2.6013
 Red. Mass:       1.6233                 1.3421                 4.6109
 IR Intens:        1.260                  2.454                 11.015
 Frequency:       989.19                1044.23                1050.20
 Force Cnst:      2.4523                 0.9529                 1.2714
 Red. Mass:       4.2537                 1.4832                 1.9565
 IR Intens:        1.617                  4.523                  4.454
 Frequency:      1092.21                1170.15                1221.27
 Force Cnst:      0.9768                 0.9127                 1.2104
 Red. Mass:       1.3898                 1.1313                 1.3774
 IR Intens:       20.116                  2.667                  7.821
 Frequency:      1262.64                1364.18                1409.52
 Force Cnst:      1.5903                 1.6255                 2.6512
 Red. Mass:       1.6930                 1.4825                 2.2649
 IR Intens:        3.619                  3.778                  4.514
 Frequency:      1448.28                1484.58                1638.02
 Force Cnst:      2.1453                 4.6705                 7.6415
 Red. Mass:       1.7360                 3.5967                 4.8338
 IR Intens:        0.569                  6.719                  3.264
 Frequency:      3137.22                3188.29                3190.57
 Force Cnst:      6.3006                 6.5462                 6.5132
 Red. Mass:       1.0865                 1.0930                 1.0859
 IR Intens:       14.030                  7.699                  5.562
 Frequency:      3197.65                3210.74                3219.11
 Force Cnst:      6.5558                 6.6517                 6.7005
 Red. Mass:       1.0882                 1.0951                 1.0975
 IR Intens:        3.700                 20.977                  7.610

 STANDARD THERMODYNAMIC QUANTITIES AT   298.15 K  AND     1.00 ATM

   This Molecule has  1 Imaginary Frequencies
   Zero point vibrational energy:       63.099 kcal/mol

   Atom    1 Element C  Has Mass   12.00000
   Atom    2 Element C  Has Mass   12.00000
   Atom    3 Element C  Has Mass   12.00000
   Atom    4 Element C  Has Mass   12.00000
   Atom    5 Element C  Has Mass   12.00000
   Atom    6 Element N  Has Mass   14.00307
   Atom    7 Element H  Has Mass    1.00783
   Atom    8 Element H  Has Mass    1.00783
   Atom    9 Element H  Has Mass    1.00783
   Atom   10 Element H  Has Mass    1.00783
   Atom   11 Element H  Has Mass    1.00783
   Atom   12 Element C  Has Mass   12.00000
   Atom   13 Element H  Has Mass    1.00783
   Molecular Mass:    92.050050 amu
   Principal axes and moments of inertia in amu*Bohr^2:
                             1           2           3
    Eigenvalues --      364.15545   489.22346   745.19535
          X               0.58700     0.79538     0.15100
          Y               0.56091    -0.53405     0.63259
          Z              -0.58379     0.28663     0.75963
   Rotational Symmetry Number is   1
   The Molecule is an Asymmetric Top
   Translational Enthalpy:        0.889 kcal/mol
   Rotational Enthalpy:           0.889 kcal/mol
   Vibrational Enthalpy:         64.497 kcal/mol
   gas constant (RT):             0.592 kcal/mol
   Translational Entropy:        39.471  cal/mol.K
   Rotational Entropy:           26.387  cal/mol.K
   Vibrational Entropy:           6.525  cal/mol.K

   Total Enthalpy:               66.867 kcal/mol
   Total Entropy:                72.383  cal/mol.K

 Total job time:  595.64s(wall), 559.27s(cpu)
        *  Thank you very much for using Q-Chem.  Have a nice day.  *
