 Q-Chem 5.0, Q-Chem, Inc., Pleasanton, CA (2017)
 Q-Chem 5.0.2 for Intel X86 EM64T Linux

User input:
--------------------------------------------------------------
$molecule
0 2
C        1.2725553019   -0.0531773476    0.0014667590
C        0.5492902231   -0.9929708636    0.8980845249
C       -0.7995677563   -0.9381843530    0.9552754992
C       -1.4783302433    0.0528452432    0.1612886339
C       -0.7611222793    1.0568683939   -0.4493902637
N        0.6494875936    1.3137527056   -0.2900699010
H        2.3377983611    0.0597208230    0.2032139133
H        1.1341628921   -1.6641441752    1.5196038878
H       -1.3709404347   -1.6133275932    1.5864085091
H       -2.5548752319    0.0219903262    0.0288267120
H       -1.2628308306    1.8435374036   -1.0065175951
C        0.8483086396    0.3311155715   -1.3450481605
H        1.3860356248    0.5550281518   -2.2623555287
$end

$rem
method                b3lyp
basis                 6-31+g(d,p)
unrestricted          true
symmetry              off
sym_ignore            true
incdft                false
incfock               0
scf_convergence       6
thresh                14
jobtype               sp
scf_guess             read
scf_algorithm         diis
max_scf_cycles        100
stability_analysis    true
max_cis_cycles        100
cis_n_roots           4
$end

--------------------------------------------------------------

             Standard Nuclear Orientation (Angstroms)
    I     Atom           X                Y                Z
 ----------------------------------------------------------------
    1      C       1.2725553019    -0.0531773476     0.0014667590
    2      C       0.5492902231    -0.9929708636     0.8980845249
    3      C      -0.7995677563    -0.9381843530     0.9552754992
    4      C      -1.4783302433     0.0528452432     0.1612886339
    5      C      -0.7611222793     1.0568683939    -0.4493902637
    6      N       0.6494875936     1.3137527056    -0.2900699010
    7      H       2.3377983611     0.0597208230     0.2032139133
    8      H       1.1341628921    -1.6641441752     1.5196038878
    9      H      -1.3709404347    -1.6133275932     1.5864085091
   10      H      -2.5548752319     0.0219903262     0.0288267120
   11      H      -1.2628308306     1.8435374036    -1.0065175951
   12      C       0.8483086396     0.3311155715    -1.3450481605
   13      H       1.3860356248     0.5550281518    -2.2623555287
 ----------------------------------------------------------------

    2    -286.8424492415      1.27E-09 Convergence criterion met
 Total energy in the final basis set = -286.84244924

         TDDFT/TDA Excitation Energies
 ---------------------------------------------------

 Excited state   1: excitation energy (eV) =    2.1205
 Total energy for state  1:                  -286.76452396 au
    <S**2>     :  0.9203
    Trans. Mom.: -0.1664 X  -0.1227 Y   0.2707 Z
    Strength   :     0.0060276711
    S(  1) --> V(  1) amplitude = -0.4142 alpha
    D( 24) --> S(  1) amplitude =  0.8974 beta

 Excited state   2: excitation energy (eV) =    2.9531
 Total energy for state  2:                  -286.73392649 au
    <S**2>     :  1.1852
    Trans. Mom.: -0.1200 X  -0.3345 Y   0.4963 Z
    Strength   :     0.0269570901
    D( 24) --> V(  1) amplitude =  0.2014 alpha
    S(  1) --> V(  1) amplitude =  0.8202 alpha
    D( 24) --> S(  1) amplitude =  0.3930 beta
    D( 24) --> V(  1) amplitude = -0.2731 beta

 Excited state   3: excitation energy (eV) =    3.4507
 Total energy for state  3:                  -286.71564016 au
    <S**2>     :  2.1278
    Trans. Mom.:  0.0853 X  -0.2045 Y   0.1631 Z
    Strength   :     0.0064015132
    D( 24) --> V(  1) amplitude = -0.5864 alpha
    S(  1) --> V(  1) amplitude =  0.3325 alpha
    D( 24) --> V(  1) amplitude =  0.7015 beta

 Excited state   4: excitation energy (eV) =    4.1879
 Total energy for state  4:                  -286.68854698 au
    <S**2>     :  0.8943
    Trans. Mom.:  0.0246 X  -0.0725 Y   0.0891 Z
    Strength   :     0.0014164091
    D( 24) --> V(  1) amplitude =  0.3170 alpha
    D( 23) --> S(  1) amplitude =  0.8447 beta
    D( 24) --> V(  1) amplitude =  0.3265 beta

 ---------------------------------------------------

                    Orbital Energies (a.u.)
 --------------------------------------------------------------

 Alpha MOs
 -- Occupied --
-14.363 -10.248 -10.243 -10.241 -10.206 -10.205 -10.202  -1.010
 -0.820  -0.774  -0.662  -0.643  -0.594  -0.534  -0.490  -0.485
 -0.464  -0.433  -0.398  -0.369  -0.363  -0.328  -0.305  -0.235
 -0.192

 Beta MOs
 -- Occupied --
-14.362 -10.250 -10.244 -10.229 -10.204 -10.202 -10.200  -1.004
 -0.815  -0.770  -0.652  -0.642  -0.578  -0.530  -0.486  -0.480
 -0.457  -0.431  -0.395  -0.365  -0.356  -0.318  -0.295  -0.217

          Ground-State Mulliken Net Atomic Charges

     Atom                 Charge (a.u.)    Spin (a.u.)
  --------------------------------------------------------
      1 C                    -0.127686      -0.105714
      2 C                    -0.006002       0.301252
      3 C                    -0.172357      -0.193013
      4 C                     0.067988       0.421337
      5 C                    -0.256059      -0.253890
      6 N                    -0.134625       0.039398
      7 H                     0.145341       0.017661
      8 H                     0.128489      -0.012851
      9 H                     0.131648       0.008573
     10 H                     0.129340      -0.019136
     11 H                     0.143604       0.008870
     12 C                    -0.193994       0.790762
     13 H                     0.144315      -0.003249
  --------------------------------------------------------
  Sum of atomic charges =     0.000000

                    Cartesian Multipole Moments
 -----------------------------------------------------------------
    Charge (ESU x 10^10)
                -0.0000
    Dipole Moment (Debye)
         X      -0.2241      Y      -0.9672      Z      -0.1631
       Tot       1.0061
    Quadrupole Moments (Debye-Ang)
        XX     -36.6951     XY      -2.3380     YY     -44.3822
        XZ      -0.4798     YZ      -4.0036     ZZ     -41.1321

 Total job time:  239.45s(wall), 186.13s(cpu)
        *  Thank you very much for using Q-Chem.  Have a nice day.  *
