 Q-Chem 5.0, Q-Chem, Inc., Pleasanton, CA (2017)
 Q-Chem 5.0.2 for Intel X86 EM64T Linux

User input:
--------------------------------------------------------------
$molecule
0 2
C        1.0984280998    0.1833698482    0.5383745806
C        0.8752620403   -0.9764411698   -0.4447151440
C       -0.4341580857   -0.9841728305   -0.7444337796
C       -1.0770136966    0.1721538520    0.0477733834
C       -0.3961764528    1.4568939510   -0.4667576251
N        0.8526068123    1.4877831580   -0.2047264531
H        2.0458961776    0.2017927456    1.0748897167
H        1.6543758370   -1.6244571172   -0.8307698462
H       -0.9636497254   -1.6338623538   -1.4326992095
H       -2.1641722463    0.1734137747    0.1279384290
H       -0.8990312387    2.2499896698   -1.0175988039
C       -0.2095794365    0.0337633389    1.3033542732
H       -0.3827880851   -0.7402268669    2.0493704784
$end

$rem
method                b3lyp
basis                 6-31g(d)
unrestricted          true
symmetry              off
sym_ignore            true
incdft                false
incfock               0
scf_convergence       8
thresh                14
jobtype               opt
scf_guess             read
scf_algorithm         diis
max_scf_cycles        100
geom_opt_tol_gradient 600
geom_opt_tol_displacement 2400
geom_opt_tol_energy   200
geom_opt_max_cycles   100
$end

--------------------------------------------------------------

    2    -286.8516348652      5.87E-10 Convergence criterion met
 Total energy in the final basis set = -286.85163487

             Standard Nuclear Orientation (Angstroms)
    I     Atom           X                Y                Z
 ----------------------------------------------------------------
    1      C       1.0981831883     0.1838051776     0.5371064374
    2      C       0.8756047818    -0.9773581843    -0.4439874646
    3      C      -0.4328718520    -0.9831254907    -0.7459388474
    4      C      -1.0767679060     0.1721434495     0.0474831746
    5      C      -0.3969579242     1.4574478034    -0.4663394837
    6      N       0.8524737182     1.4867560311    -0.2089158521
    7      H       2.0454497646     0.2017145689     1.0739785463
    8      H       1.6543109854    -1.6276890005    -0.8270244399
    9      H      -0.9619359898    -1.6336293167    -1.4338435980
   10      H      -2.1638067325     0.1731932382     0.1282940543
   11      H      -0.9007879346     2.2525830571    -1.0133409475
   12      C      -0.2100642753     0.0342702407     1.3034282578
   13      H      -0.3828298242    -0.7401115743     2.0491001627
 ----------------------------------------------------------------

   11    -286.8516359420      9.79E-09 Convergence criterion met
 Total energy in the final basis set = -286.85163594
 Final energy is   -286.851635941973
 **  OPTIMIZATION CONVERGED  **

                    Orbital Energies (a.u.)
 --------------------------------------------------------------

 Alpha MOs
 -- Occupied --
-14.322 -10.224 -10.220 -10.210 -10.204 -10.201 -10.197  -0.952
 -0.821  -0.726  -0.705  -0.579  -0.573  -0.531  -0.512  -0.472
 -0.418  -0.410  -0.381  -0.373  -0.348  -0.294  -0.271  -0.258
 -0.196

 Beta MOs
 -- Occupied --
-14.321 -10.224 -10.221 -10.210 -10.200 -10.196 -10.190  -0.949
 -0.815  -0.725  -0.690  -0.577  -0.561  -0.527  -0.509  -0.463
 -0.414  -0.406  -0.379  -0.369  -0.342  -0.287  -0.261  -0.255

          Ground-State Mulliken Net Atomic Charges

     Atom                 Charge (a.u.)    Spin (a.u.)
  --------------------------------------------------------
      1 C                    -0.094404      -0.044994
      2 C                    -0.087828       0.039930
      3 C                    -0.095910       0.079792
      4 C                    -0.246040      -0.043942
      5 C                     0.092384      -0.008896
      6 N                    -0.325309       0.022035
      7 H                     0.139779       0.003030
      8 H                     0.146114       0.000897
      9 H                     0.145529       0.000319
     10 H                     0.133906       0.002848
     11 H                     0.149653      -0.000169
     12 C                    -0.096779       0.975674
     13 H                     0.138906      -0.026526
  --------------------------------------------------------
  Sum of atomic charges =    -0.000000

                    Cartesian Multipole Moments
 -----------------------------------------------------------------
    Charge (ESU x 10^10)
                -0.0000
    Dipole Moment (Debye)
         X      -1.4476      Y      -1.8676      Z      -0.2234
       Tot       2.3735
    Quadrupole Moments (Debye-Ang)
        XX     -38.5244     XY      -4.0862     YY     -42.6102
        XZ       2.0226     YZ      -0.0472     ZZ     -40.3425

 Total job time:  34.66s(wall), 53.28s(cpu)
        *  Thank you very much for using Q-Chem.  Have a nice day.  *
