 Q-Chem 5.0, Q-Chem, Inc., Pleasanton, CA (2017)
 Q-Chem 5.0.2 for Intel X86 EM64T Linux

User input:
--------------------------------------------------------------
$molecule
0 2
C        1.5347172290    0.3454639589   -0.6183732222
C        1.1735731804   -0.9593315632   -0.3365047952
C       -0.0772104441   -1.4426443751    0.1894066043
C       -1.3051828010    0.7329737107    0.4116508386
C       -0.3746910561    1.6477457784   -0.0419429535
N        0.8918913162    1.5300991777   -0.5072437733
H        2.5461612253    0.4645600824   -1.0131766898
H        1.9325769451   -1.7111748747   -0.5388862410
H       -0.1452158814   -2.5187605063    0.3364218789
H       -2.2588357145    1.1501332227    0.7262513208
H       -0.7104166550    2.6869346095   -0.0314645072
C       -1.1698170241   -0.6976319825    0.5187254273
H       -2.0375503197   -1.2283672386    0.9051361124
$end

$rem
method                b3lyp
basis                 6-31g(d)
unrestricted          true
symmetry              off
sym_ignore            true
incdft                false
incfock               0
scf_convergence       8
thresh                14
jobtype               opt
scf_guess             read
scf_algorithm         diis
max_scf_cycles        100
geom_opt_tol_gradient 600
geom_opt_tol_displacement 2400
geom_opt_tol_energy   200
geom_opt_max_cycles   100
$end

--------------------------------------------------------------

    2    -286.9243518580      8.20E-10 Convergence criterion met
 Total energy in the final basis set = -286.92435186

             Standard Nuclear Orientation (Angstroms)
    I     Atom           X                Y                Z
 ----------------------------------------------------------------
    1      C       1.5350837666     0.3453606518    -0.6178982683
    2      C       1.1737664592    -0.9593789333    -0.3360804907
    3      C      -0.0769351772    -1.4427068395     0.1898896818
    4      C      -1.3054679703     0.7330690516     0.4112849400
    5      C      -0.3748410444     1.6479235217    -0.0425780071
    6      N       0.8920125193     1.5302305521    -0.5074504573
    7      H       2.5464038247     0.4648867546    -1.0130775654
    8      H       1.9321410119    -1.7116003511    -0.5393123970
    9      H      -0.1456013314    -2.5189781604     0.3352420439
   10      H      -2.2593367894     1.1497660310     0.7259115992
   11      H      -0.7103779670     2.6872875489    -0.0313133891
   12      C      -1.1695801811    -0.6975572387     0.5193928207
   13      H      -2.0372671208    -1.2283025888     0.9059894893
 ----------------------------------------------------------------

   12    -286.9243524967      3.80E-09 Convergence criterion met
 Total energy in the final basis set = -286.92435250
 Final energy is   -286.924352496724
 **  OPTIMIZATION CONVERGED  **

                    Orbital Energies (a.u.)
 --------------------------------------------------------------

 Alpha MOs
 -- Occupied --
-14.322 -10.232 -10.232 -10.212 -10.211 -10.201 -10.200  -0.922
 -0.818  -0.784  -0.693  -0.667  -0.551  -0.537  -0.518  -0.449
 -0.439  -0.414  -0.394  -0.386  -0.349  -0.322  -0.299  -0.251
 -0.162

 Beta MOs
 -- Occupied --
-14.314 -10.234 -10.233 -10.210 -10.210 -10.196 -10.196  -0.911
 -0.809  -0.777  -0.681  -0.665  -0.546  -0.535  -0.514  -0.447
 -0.438  -0.411  -0.383  -0.373  -0.348  -0.295  -0.276  -0.241

          Ground-State Mulliken Net Atomic Charges

     Atom                 Charge (a.u.)    Spin (a.u.)
  --------------------------------------------------------
      1 C                     0.036231      -0.115089
      2 C                    -0.132051       0.351160
      3 C                    -0.110659       0.088441
      4 C                    -0.130807       0.342750
      5 C                     0.034752      -0.110080
      6 N                    -0.423331       0.386893
      7 H                     0.142567       0.003524
      8 H                     0.134300      -0.018527
      9 H                     0.141988      -0.006383
     10 H                     0.134390      -0.018138
     11 H                     0.142674       0.003276
     12 C                    -0.111970       0.099065
     13 H                     0.141916      -0.006892
  --------------------------------------------------------
  Sum of atomic charges =    -0.000000

                    Cartesian Multipole Moments
 -----------------------------------------------------------------
    Charge (ESU x 10^10)
                 0.0000
    Dipole Moment (Debye)
         X      -1.0855      Y      -1.8639      Z       0.6173
       Tot       2.2435
    Quadrupole Moments (Debye-Ang)
        XX     -37.2950     XY      -3.5756     YY     -39.9499
        XZ      -1.8939     YZ       0.9728     ZZ     -42.7539

 Total job time:  15.48s(wall), 50.36s(cpu)
        *  Thank you very much for using Q-Chem.  Have a nice day.  *
