 Q-Chem 5.0, Q-Chem, Inc., Pleasanton, CA (2017)
 Q-Chem 5.0.2 for Intel X86 EM64T Linux

User input:
--------------------------------------------------------------
$molecule
0 2
C        1.3031562781    0.3432829310    0.2338945426
C        0.6299583019   -0.9938895208   -0.1373072860
C       -0.6737183407   -0.5171585340   -0.8255888948
C       -1.0837471636    0.1860208637    0.4383464344
C       -0.5404090309    1.0162559415   -0.7392605231
N        0.7984021633    1.4201842618   -0.5307077841
H        2.3391274207    0.3669366015    0.5537548469
H        1.1692879607   -1.9223921198   -0.2874421475
H       -1.2690502896   -1.0351836176   -1.5690045676
H       -2.0629723815    0.3263237856    0.8822803564
H       -1.1998439385    1.6593269563   -1.3115748978
C        0.2206935727   -0.2902070629    1.1264326499
H        0.3691154475   -0.5595004861    2.1661772707
$end

$rem
method                b3lyp
basis                 6-31g(d)
unrestricted          true
symmetry              off
sym_ignore            true
incdft                false
incfock               0
scf_convergence       8
thresh                14
jobtype               opt
scf_guess             read
scf_algorithm         diis
max_scf_cycles        100
geom_opt_tol_gradient 600
geom_opt_tol_displacement 2400
geom_opt_tol_energy   200
geom_opt_max_cycles   100
$end

--------------------------------------------------------------

    2    -286.8249362743      4.42E-10 Convergence criterion met
 Total energy in the final basis set = -286.82493627
   10    -286.8249389463      5.23E-09 Convergence criterion met
 Total energy in the final basis set = -286.82493895

             Standard Nuclear Orientation (Angstroms)
    I     Atom           X                Y                Z
 ----------------------------------------------------------------
    1      C       1.3039824007     0.3428203950     0.2319906084
    2      C       0.6301970215    -0.9932587948    -0.1373280868
    3      C      -0.6735929152    -0.5172381448    -0.8251794341
    4      C      -1.0842805750     0.1853400715     0.4390435946
    5      C      -0.5409541678     1.0157600491    -0.7395985934
    6      N       0.7976373362     1.4204560976    -0.5301822795
    7      H       2.3392794393     0.3681156423     0.5539142655
    8      H       1.1664542921    -1.9237854105    -0.2862010520
    9      H      -1.2659615212    -1.0348824459    -1.5713921616
   10      H      -2.0631810494     0.3277803634     0.8829458686
   11      H      -1.2005829441     1.6593946432    -1.3112645477
   12      C       0.2204020845    -0.2906556594     1.1268498163
   13      H       0.3706005984    -0.5598468066     2.1664020017
 ----------------------------------------------------------------

   10    -286.8249399654      7.87E-09 Convergence criterion met
 Total energy in the final basis set = -286.82493997
 Final energy is   -286.824939965380
 **  OPTIMIZATION CONVERGED  **

                    Orbital Energies (a.u.)
 --------------------------------------------------------------

 Alpha MOs
 -- Occupied --
-14.335 -10.215 -10.215 -10.207 -10.207 -10.207 -10.206  -0.986
 -0.836  -0.793  -0.649  -0.588  -0.574  -0.542  -0.533  -0.455
 -0.427  -0.415  -0.395  -0.384  -0.337  -0.275  -0.274  -0.248
 -0.212

 Beta MOs
 -- Occupied --
-14.319 -10.217 -10.216 -10.205 -10.205 -10.205 -10.205  -0.976
 -0.811  -0.789  -0.644  -0.585  -0.568  -0.537  -0.529  -0.453
 -0.423  -0.392  -0.389  -0.378  -0.322  -0.269  -0.257  -0.244

          Ground-State Mulliken Net Atomic Charges

     Atom                 Charge (a.u.)    Spin (a.u.)
  --------------------------------------------------------
      1 C                    -0.044753      -0.080437
      2 C                    -0.124592       0.089203
      3 C                    -0.124743       0.089213
      4 C                    -0.124495       0.089102
      5 C                    -0.045155      -0.080248
      6 N                    -0.285791       0.811413
      7 H                     0.149320       0.001048
      8 H                     0.143968      -0.002482
      9 H                     0.143957      -0.002502
     10 H                     0.143986      -0.002481
     11 H                     0.149368       0.001045
     12 C                    -0.125060       0.089619
     13 H                     0.143989      -0.002494
  --------------------------------------------------------
  Sum of atomic charges =     0.000000

                    Cartesian Multipole Moments
 -----------------------------------------------------------------
    Charge (ESU x 10^10)
                 0.0000
    Dipole Moment (Debye)
         X      -1.0815      Y      -1.9258      Z       0.7187
       Tot       2.3227
    Quadrupole Moments (Debye-Ang)
        XX     -37.8208     XY      -3.6184     YY     -43.5292
        XZ       2.5569     YZ       1.0584     ZZ     -39.2658

 Total job time:  30.04s(wall), 83.72s(cpu)
        *  Thank you very much for using Q-Chem.  Have a nice day.  *
