 Q-Chem 5.0, Q-Chem, Inc., Pleasanton, CA (2017)
 Q-Chem 5.0.2 for Intel X86 EM64T Linux

User input:
--------------------------------------------------------------
$molecule
0 2
C        1.5915560534    0.4038568986   -0.4015746982
C        1.2326624385   -0.9184939181   -0.2197401111
C       -0.0622307331   -1.4509571608    0.1203810849
C       -1.3664923973    0.6865277646    0.2691547711
C       -0.4098913406    1.6398897740   -0.0248094947
N        0.9074062739    1.5695081078   -0.3286538055
H        2.6415186609    0.5624870927   -0.6574742130
H        2.0309931089   -1.6449091882   -0.3515158048
H       -0.1199588073   -2.5336397950    0.2129643870
H       -2.3635984213    1.0685109871    0.4745849906
H       -0.7720165505    2.6703330996   -0.0154478226
C       -1.2072701854   -0.7438136993    0.3359894837
H       -2.1026781001   -1.3092999629    0.5861412326
$end

$rem
method                b3lyp
basis                 6-31g(d)
unrestricted          true
symmetry              off
sym_ignore            true
incdft                false
incfock               0
scf_convergence       8
thresh                14
jobtype               opt
scf_guess             read
scf_algorithm         diis
max_scf_cycles        100
geom_opt_tol_gradient 600
geom_opt_tol_displacement 2400
geom_opt_tol_energy   200
geom_opt_max_cycles   100
$end

--------------------------------------------------------------

             Standard Nuclear Orientation (Angstroms)
    I     Atom           X                Y                Z
 ----------------------------------------------------------------
    1      C       1.5915560534     0.4038568986    -0.4015746982
    2      C       1.2326624385    -0.9184939181    -0.2197401111
    3      C      -0.0622307331    -1.4509571608     0.1203810849
    4      C      -1.3664923973     0.6865277646     0.2691547711
    5      C      -0.4098913406     1.6398897740    -0.0248094947
    6      N       0.9074062739     1.5695081078    -0.3286538055
    7      H       2.6415186609     0.5624870927    -0.6574742130
    8      H       2.0309931089    -1.6449091882    -0.3515158048
    9      H      -0.1199588073    -2.5336397950     0.2129643870
   10      H      -2.3635984213     1.0685109871     0.4745849906
   11      H      -0.7720165505     2.6703330996    -0.0154478226
   12      C      -1.2072701854    -0.7438136993     0.3359894837
   13      H      -2.1026781001    -1.3092999629     0.5861412326
 ----------------------------------------------------------------

    2    -286.9243507379      7.74E-10 Convergence criterion met
 Total energy in the final basis set = -286.92435074
 Final energy is   -286.924350737860
 **  OPTIMIZATION CONVERGED  **

                    Orbital Energies (a.u.)
 --------------------------------------------------------------

 Alpha MOs
 -- Occupied --
-14.322 -10.232 -10.232 -10.212 -10.211 -10.201 -10.201  -0.922
 -0.818  -0.784  -0.693  -0.667  -0.551  -0.537  -0.518  -0.449
 -0.439  -0.414  -0.394  -0.386  -0.349  -0.322  -0.299  -0.251
 -0.162

 Beta MOs
 -- Occupied --
-14.314 -10.233 -10.233 -10.210 -10.210 -10.196 -10.196  -0.911
 -0.809  -0.777  -0.681  -0.665  -0.546  -0.535  -0.514  -0.447
 -0.438  -0.411  -0.383  -0.373  -0.348  -0.295  -0.276  -0.241

          Ground-State Mulliken Net Atomic Charges

     Atom                 Charge (a.u.)    Spin (a.u.)
  --------------------------------------------------------
      1 C                     0.035660      -0.112734
      2 C                    -0.131494       0.347190
      3 C                    -0.111356       0.093517
      4 C                    -0.131386       0.346715
      5 C                     0.035446      -0.112466
      6 N                    -0.423427       0.386948
      7 H                     0.142587       0.003408
      8 H                     0.134385      -0.018343
      9 H                     0.141954      -0.006626
     10 H                     0.134353      -0.018320
     11 H                     0.142647       0.003394
     12 C                    -0.111313       0.093964
     13 H                     0.141943      -0.006647
  --------------------------------------------------------
  Sum of atomic charges =    -0.000000

                    Cartesian Multipole Moments
 -----------------------------------------------------------------
    Charge (ESU x 10^10)
                 0.0000
    Dipole Moment (Debye)
         X      -1.1050      Y      -1.9112      Z       0.4010
       Tot       2.2438
    Quadrupole Moments (Debye-Ang)
        XX     -36.7072     XY      -3.5341     YY     -40.1855
        XZ      -1.2887     YZ       0.5985     ZZ     -43.1054

 Total job time:  22.51s(wall), 14.78s(cpu)
        *  Thank you very much for using Q-Chem.  Have a nice day.  *
