 Q-Chem 5.0, Q-Chem, Inc., Pleasanton, CA (2017)
 Q-Chem 5.0.2 for Intel X86 EM64T Linux

User input:
--------------------------------------------------------------
$molecule
0 2
C        1.3671138301    0.2915646631    0.2562294130
C        1.0306215280   -0.8469022956   -0.5697244840
C       -0.3971554733   -1.0280557654   -0.3809151903
C       -1.1309559008    0.3430063874    0.0255971610
C       -0.3915608927    1.5466501493   -0.3801693408
N        0.8740001741    1.5430637700   -0.1562367706
H        2.3212675781    0.3393828639    0.7774155469
H        1.7130595547   -1.6632018612   -0.7776282900
H       -0.9928724149   -1.8263145952   -0.8142595419
H       -2.2177655313    0.3343249773   -0.0354882777
H       -0.8648030414    2.3857034573   -0.8861017238
C       -0.4558275421   -0.4897744040    1.0334147233
H       -0.9008636479   -0.9548860878    1.9111796187
$end

$rem
method                b3lyp
basis                 6-31+g(d,p)
unrestricted          true
symmetry              off
sym_ignore            true
incdft                false
incfock               0
scf_convergence       6
thresh                14
jobtype               sp
scf_guess             read
scf_algorithm         diis
max_scf_cycles        100
stability_analysis    true
max_cis_cycles        100
cis_n_roots           4
$end

--------------------------------------------------------------

             Standard Nuclear Orientation (Angstroms)
    I     Atom           X                Y                Z
 ----------------------------------------------------------------
    1      C       1.3671138301     0.2915646631     0.2562294130
    2      C       1.0306215280    -0.8469022956    -0.5697244840
    3      C      -0.3971554733    -1.0280557654    -0.3809151903
    4      C      -1.1309559008     0.3430063874     0.0255971610
    5      C      -0.3915608927     1.5466501493    -0.3801693408
    6      N       0.8740001741     1.5430637700    -0.1562367706
    7      H       2.3212675781     0.3393828639     0.7774155469
    8      H       1.7130595547    -1.6632018612    -0.7776282900
    9      H      -0.9928724149    -1.8263145952    -0.8142595419
   10      H      -2.2177655313     0.3343249773    -0.0354882777
   11      H      -0.8648030414     2.3857034573    -0.8861017238
   12      C      -0.4558275421    -0.4897744040     1.0334147233
   13      H      -0.9008636479    -0.9548860878     1.9111796187
 ----------------------------------------------------------------

    2    -286.8277536404      2.63E-09 Convergence criterion met
 Total energy in the final basis set = -286.82775364

         TDDFT/TDA Excitation Energies
 ---------------------------------------------------

 Excited state   1: excitation energy (eV) =    2.3602
 Total energy for state  1:                  -286.74101687 au
    <S**2>     :  0.7678
    Trans. Mom.:  0.0999 X  -0.2720 Y  -0.2159 Z
    Strength   :     0.0075514770
    S(  1) --> V(  1) amplitude =  0.9217 alpha
    D( 24) --> S(  1) amplitude =  0.3320 beta

 Excited state   2: excitation energy (eV) =    3.2774
 Total energy for state  2:                  -286.70730990 au
    <S**2>     :  1.3424
    Trans. Mom.: -0.2224 X   0.0517 Y   0.2916 Z
    Strength   :     0.0110128069
    D( 24) --> V(  1) amplitude = -0.3007 alpha
    S(  1) --> V(  1) amplitude = -0.3118 alpha
    S(  1) --> V(  3) amplitude =  0.1967 alpha
    D( 24) --> S(  1) amplitude =  0.8013 beta
    D( 24) --> V(  1) amplitude =  0.2388 beta

 Excited state   3: excitation energy (eV) =    3.8771
 Total energy for state  3:                  -286.68527243 au
    <S**2>     :  1.2907
    Trans. Mom.:  0.0250 X   0.1184 Y  -0.1832 Z
    Strength   :     0.0045805280
    D( 24) --> V(  1) amplitude =  0.3702 alpha
    S(  1) --> V(  2) amplitude =  0.4928 alpha
    S(  1) --> V(  3) amplitude =  0.6742 alpha
    D( 24) --> V(  1) amplitude = -0.3275 beta

 Excited state   4: excitation energy (eV) =    3.9902
 Total energy for state  4:                  -286.68111798 au
    <S**2>     :  1.6143
    Trans. Mom.:  0.2206 X  -0.0156 Y  -0.3619 Z
    Strength   :     0.0175842782
    D( 24) --> V(  1) amplitude = -0.4073 alpha
    S(  1) --> V(  2) amplitude =  0.3733 alpha
    S(  1) --> V(  3) amplitude =  0.2346 alpha
    D( 24) --> S(  1) amplitude = -0.4185 beta
    D( 24) --> V(  1) amplitude =  0.5985 beta

 ---------------------------------------------------

                    Orbital Energies (a.u.)
 --------------------------------------------------------------

 Alpha MOs
 -- Occupied --
-14.341 -10.244 -10.236 -10.226 -10.224 -10.219 -10.210  -0.965
 -0.871  -0.772  -0.664  -0.634  -0.578  -0.543  -0.512  -0.477
 -0.454  -0.431  -0.416  -0.369  -0.349  -0.292  -0.284  -0.256
 -0.181

 Beta MOs
 -- Occupied --
-14.341 -10.246 -10.237 -10.227 -10.223 -10.209 -10.200  -0.962
 -0.863  -0.763  -0.655  -0.632  -0.568  -0.540  -0.504  -0.472
 -0.451  -0.428  -0.407  -0.367  -0.332  -0.292  -0.282  -0.239

          Ground-State Mulliken Net Atomic Charges

     Atom                 Charge (a.u.)    Spin (a.u.)
  --------------------------------------------------------
      1 C                    -0.135956      -0.198317
      2 C                     0.000893       0.755674
      3 C                    -0.130421      -0.087415
      4 C                    -0.071972      -0.014150
      5 C                    -0.064438      -0.051233
      6 N                    -0.150239       0.039858
      7 H                     0.127175       0.010724
      8 H                     0.141477      -0.036383
      9 H                     0.140151       0.001435
     10 H                     0.142281       0.021222
     11 H                     0.134158       0.002586
     12 C                    -0.262497       0.544216
     13 H                     0.129389       0.011781
  --------------------------------------------------------
  Sum of atomic charges =    -0.000000

                    Cartesian Multipole Moments
 -----------------------------------------------------------------
    Charge (ESU x 10^10)
                -0.0000
    Dipole Moment (Debye)
         X      -1.7792      Y      -1.8262      Z       0.0961
       Tot       2.5514
    Quadrupole Moments (Debye-Ang)
        XX     -38.6986     XY      -3.8405     YY     -42.6922
        XZ       1.3749     YZ      -0.2204     ZZ     -43.1611

 Total job time:  331.46s(wall), 221.19s(cpu)
        *  Thank you very much for using Q-Chem.  Have a nice day.  *
