 Q-Chem 5.0, Q-Chem, Inc., Pleasanton, CA (2017)
 Q-Chem 5.0.2 for Intel X86 EM64T Linux

User input:
--------------------------------------------------------------
$molecule
0 2
C        1.6803072342    0.3945463122   -0.1790683170
C        1.1263490106   -0.8348011062   -0.2673907334
C       -0.3164220115   -1.0621630924   -0.0827497347
C       -1.1559921890    0.3283053733    0.0476775594
C       -0.3270390790    1.5323805493   -0.1490913060
N        0.9598779594    1.5896965768   -0.1665298860
H        2.7571846633    0.5230636471   -0.2509313291
H        1.7481625718   -1.6980040683   -0.4919427787
H       -0.7580703293   -1.9017057218   -0.6227678223
H       -2.1629936635    0.3924217203   -0.3692168243
H       -0.8669858804    2.4604237218   -0.3527428824
C       -0.9581665579   -0.6145042569    1.1513137541
H       -1.7262117293   -1.1096596548    1.7334402998
****
C        1.0985094330    0.1839562896    0.5374820328
C        0.8754695473   -0.9762216475   -0.4447827596
C       -0.4334755098   -0.9835648469   -0.7449802152
C       -1.0769748012    0.1722851904    0.0476278394
C       -0.3965941324    1.4571040686   -0.4665545873
N        0.8522713095    1.4877023731   -0.2063691292
H        2.0457613317    0.2012382485    1.0744545060
H        1.6541697789   -1.6259804609   -0.8287524447
H       -0.9627012729   -1.6343201000   -1.4325359913
H       -2.1640456805    0.1737690686    0.1282376698
H       -0.8995453322    2.2510901379   -1.0160900970
C       -0.2101619057    0.0339504048    1.3035616432
H       -0.3826827659   -0.7410087262    2.0487015330
$end

$rem
method                b3lyp
basis                 6-31g(d)
unrestricted          true
symmetry              off
sym_ignore            true
incdft                false
incfock               0
scf_convergence       8
thresh                14
jobtype               fsm
scf_guess             core
scf_guess_mix         5
scf_algorithm         diis
max_scf_cycles        100
fsm_nnode             21
fsm_ngrad             6
fsm_mode              2
fsm_opt_mode          2
$end

--------------------------------------------------------------

   20    -286.8549117856      8.20E-09 Convergence criterion met
 Total energy in the final basis set = -286.85491179
   21    -286.8516379048      2.66E-09 Convergence criterion met
 Total energy in the final basis set = -286.85163790
   21    -286.8532272290      6.83E-09 Convergence criterion met
 Total energy in the final basis set = -286.85322723
   21    -286.8538201926      6.47E-09 Convergence criterion met
 Total energy in the final basis set = -286.85382019
   20    -286.8484314579      9.74E-09 Convergence criterion met
 Total energy in the final basis set = -286.84843146
   21    -286.8494679944      4.56E-09 Convergence criterion met
 Total energy in the final basis set = -286.84946799
   21    -286.8516946474      5.73E-09 Convergence criterion met
 Total energy in the final basis set = -286.85169465
   20    -286.8530438910      8.42E-09 Convergence criterion met
 Total energy in the final basis set = -286.77874159
   24    -286.7793330001      8.65E-09 Convergence criterion met
 Total energy in the final basis set = -286.77933300
   25    -286.7787348135      3.28E-09 Convergence criterion met
 Total energy in the final basis set = -286.77873481
   24    -286.7793406430      8.61E-09 Convergence criterion met
 Total energy in the final basis set = -286.77934064
   24    -286.7787278545      9.94E-09 Convergence criterion met
 Total energy in the final basis set = -286.77872785
   24    -286.7793484273      8.71E-09 Convergence criterion met
 Total energy in the final basis set = -286.77934843
   24    -286.7787231782      9.84E-09 Convergence criterion met
 Total energy in the final basis set = -286.77872318
   24    -286.7793536607      8.77E-09 Convergence criterion met
 Total energy in the final basis set = -286.77935366

                    Orbital Energies (a.u.)
 --------------------------------------------------------------

 Alpha MOs
 -- Occupied --
-14.325 -10.228 -10.220 -10.219 -10.218 -10.216 -10.195  -0.951
 -0.835  -0.760  -0.658  -0.613  -0.589  -0.534  -0.492  -0.463
 -0.443  -0.422  -0.397  -0.376  -0.333  -0.290  -0.261  -0.242
 -0.152

 Beta MOs
 -- Occupied --
-14.326 -10.228 -10.221 -10.220 -10.218 -10.203 -10.189  -0.949
 -0.829  -0.753  -0.650  -0.609  -0.574  -0.531  -0.486  -0.460
 -0.440  -0.420  -0.393  -0.374  -0.318  -0.278  -0.258  -0.225

          Ground-State Mulliken Net Atomic Charges

     Atom                 Charge (a.u.)    Spin (a.u.)
  --------------------------------------------------------
      1 C                    -0.040318      -0.038016
      2 C                    -0.055130       0.377747
      3 C                    -0.159197      -0.097421
      4 C                    -0.222922      -0.022863
      5 C                     0.110040       0.035032
      6 N                    -0.331248      -0.009417
      7 H                     0.137089       0.003783
      8 H                     0.148084      -0.021267
      9 H                     0.153445       0.002601
     10 H                     0.146063       0.020332
     11 H                     0.148006      -0.001666
     12 C                    -0.186508       0.762461
     13 H                     0.152595      -0.011306
  --------------------------------------------------------
  Sum of atomic charges =    -0.000000

                    Cartesian Multipole Moments
 -----------------------------------------------------------------
    Charge (ESU x 10^10)
                -0.0000
    Dipole Moment (Debye)
         X      -1.7165      Y      -1.7937      Z      -0.3474
       Tot       2.5069
    Quadrupole Moments (Debye-Ang)
        XX     -37.5742     XY      -3.3375     YY     -41.3125
        XZ       0.7962     YZ       0.2688     ZZ     -41.7275

             Standard Nuclear Orientation (Angstroms)
    I     Atom           X                Y                Z
 ----------------------------------------------------------------
    1      C       1.4102593078     0.3067171272     0.2236715233
    2      C       0.9970737156    -0.8756588561    -0.4729363080
    3      C      -0.4097842121    -0.9622485335    -0.5120660541
    4      C      -1.0940602419     0.2726526969     0.0222721248
    5      C      -0.3862147814     1.5188972988    -0.3879238546
    6      N       0.8804424877     1.5381870236    -0.2084315810
    7      H       2.4059749072     0.3739874427     0.6581583967
    8      H       1.6672928262    -1.6991155453    -0.6866398562
    9      H      -0.9560440564    -1.7836181876    -0.9652339695
   10      H      -2.1867806586     0.2831682342    -0.0469690083
   11      H      -0.9010078988     2.3780988519    -0.8173079226
   12      C      -0.4857499469    -0.3563048210     1.2467666493
   13      H      -0.9871432278    -1.0202014725     1.9499527041
 ----------------------------------------------------------------

 Total job time:  3211.04s(wall), 4086.60s(cpu)
        *  Thank you very much for using Q-Chem.  Have a nice day.  *
