 Q-Chem 5.0, Q-Chem, Inc., Pleasanton, CA (2017)
 Q-Chem 5.0.2 for Intel X86 EM64T Linux

User input:
--------------------------------------------------------------
$molecule
0 2
C        1.6801790246    0.3941026087   -0.1783820193
C        1.1262118113   -0.8348490310   -0.2685289378
C       -0.3162841307   -1.0621848678   -0.0823204238
C       -1.1557279371    0.3278757744    0.0469936080
C       -0.3269541053    1.5324844040   -0.1484785026
N        0.9598677316    1.5898455975   -0.1662576803
H        2.7570140642    0.5227856985   -0.2501939659
H        1.7478113132   -1.6980287218   -0.4937562742
H       -0.7575702086   -1.9017382680   -0.6224630194
H       -2.1622104709    0.3916870516   -0.3711500977
H       -0.8676481845    2.4600622154   -0.3521833492
C       -0.9589916683   -0.6131773555    1.1517287765
H       -1.7256972399   -1.1088651055    1.7349918851
$end

$rem
method                b3lyp
basis                 6-31g(d)
unrestricted          true
symmetry              off
sym_ignore            true
incdft                false
incfock               0
scf_convergence       8
thresh                14
jobtype               opt
scf_guess             core
scf_guess_mix         5
scf_algorithm         diis
max_scf_cycles        100
geom_opt_max_cycles   300
$end

--------------------------------------------------------------

   20    -286.8549095737      7.68E-09 Convergence criterion met
 Total energy in the final basis set = -286.85490957
   16    -286.8549113880      6.45E-09 Convergence criterion met
 Total energy in the final basis set = -286.85491139

             Standard Nuclear Orientation (Angstroms)
    I     Atom           X                Y                Z
 ----------------------------------------------------------------
    1      C       1.6803072342     0.3945463122    -0.1790683170
    2      C       1.1263490106    -0.8348011062    -0.2673907334
    3      C      -0.3164220115    -1.0621630924    -0.0827497347
    4      C      -1.1559921890     0.3283053733     0.0476775594
    5      C      -0.3270390790     1.5323805493    -0.1490913060
    6      N       0.9598779594     1.5896965768    -0.1665298860
    7      H       2.7571846633     0.5230636471    -0.2509313291
    8      H       1.7481625718    -1.6980040683    -0.4919427787
    9      H      -0.7580703293    -1.9017057218    -0.6227678223
   10      H      -2.1629936635     0.3924217203    -0.3692168243
   11      H      -0.8669858804     2.4604237218    -0.3527428824
   12      C      -0.9581665579    -0.6145042569     1.1513137541
   13      H      -1.7262117293    -1.1096596548     1.7334402998
 ----------------------------------------------------------------

   16    -286.8549117856      6.44E-09 Convergence criterion met
 Total energy in the final basis set = -286.85491179
 Final energy is   -286.854911785629
 **  OPTIMIZATION CONVERGED  **

                    Orbital Energies (a.u.)
 --------------------------------------------------------------

 Alpha MOs
 -- Occupied --
-14.323 -10.230 -10.224 -10.221 -10.219 -10.206 -10.195  -0.934
 -0.868  -0.765  -0.667  -0.641  -0.570  -0.532  -0.491  -0.482
 -0.451  -0.425  -0.377  -0.373  -0.359  -0.300  -0.255  -0.229
 -0.219

 Beta MOs
 -- Occupied --
-14.323 -10.229 -10.224 -10.221 -10.207 -10.204 -10.194  -0.932
 -0.858  -0.763  -0.659  -0.639  -0.556  -0.527  -0.488  -0.473
 -0.447  -0.422  -0.375  -0.371  -0.351  -0.291  -0.250  -0.225

          Ground-State Mulliken Net Atomic Charges

     Atom                 Charge (a.u.)    Spin (a.u.)
  --------------------------------------------------------
      1 C                    -0.009202      -0.014642
      2 C                    -0.083865       0.041032
      3 C                    -0.175836      -0.016684
      4 C                    -0.194266      -0.017116
      5 C                     0.088613       0.019305
      6 N                    -0.391558       0.002477
      7 H                     0.136782       0.000772
      8 H                     0.139543       0.003634
      9 H                     0.155137       0.017055
     10 H                     0.155355       0.022639
     11 H                     0.142799       0.005879
     12 C                    -0.121298       0.958855
     13 H                     0.157796      -0.023207
  --------------------------------------------------------
  Sum of atomic charges =    -0.000000

                    Cartesian Multipole Moments
 -----------------------------------------------------------------
    Charge (ESU x 10^10)
                -0.0000
    Dipole Moment (Debye)
         X      -1.9386      Y      -2.0362      Z      -0.3370
       Tot       2.8315
    Quadrupole Moments (Debye-Ang)
        XX     -36.9973     XY      -2.9635     YY     -41.5667
        XZ      -0.4184     YZ       0.3088     ZZ     -42.3369

 Total job time:  135.06s(wall), 161.25s(cpu)
        *  Thank you very much for using Q-Chem.  Have a nice day.  *
