 Q-Chem 5.0, Q-Chem, Inc., Pleasanton, CA (2017)
 Q-Chem 5.0.2 for Intel X86 EM64T Linux

User input:
--------------------------------------------------------------
$molecule
0 2
C        1.4102593078    0.3067171272    0.2236715233
C        0.9970737156   -0.8756588561   -0.4729363080
C       -0.4097842121   -0.9622485335   -0.5120660541
C       -1.0940602419    0.2726526969    0.0222721248
C       -0.3862147814    1.5188972988   -0.3879238546
N        0.8804424877    1.5381870236   -0.2084315810
H        2.4059749072    0.3739874427    0.6581583967
H        1.6672928262   -1.6991155453   -0.6866398562
H       -0.9560440564   -1.7836181876   -0.9652339695
H       -2.1867806586    0.2831682342   -0.0469690083
H       -0.9010078988    2.3780988519   -0.8173079226
C       -0.4857499469   -0.3563048210    1.2467666493
H       -0.9871432278   -1.0202014725    1.9499527041
$end

$rem
method                b3lyp
basis                 6-31g(d)
unrestricted          true
symmetry              off
sym_ignore            true
incdft                false
incfock               0
scf_convergence       8
thresh                14
jobtype               freq
scf_guess             read
scf_algorithm         diis
max_scf_cycles        100
$end

--------------------------------------------------------------

             Standard Nuclear Orientation (Angstroms)
    I     Atom           X                Y                Z
 ----------------------------------------------------------------
    1      C       1.4102593078     0.3067171272     0.2236715233
    2      C       0.9970737156    -0.8756588561    -0.4729363080
    3      C      -0.4097842121    -0.9622485335    -0.5120660541
    4      C      -1.0940602419     0.2726526969     0.0222721248
    5      C      -0.3862147814     1.5188972988    -0.3879238546
    6      N       0.8804424877     1.5381870236    -0.2084315810
    7      H       2.4059749072     0.3739874427     0.6581583967
    8      H       1.6672928262    -1.6991155453    -0.6866398562
    9      H      -0.9560440564    -1.7836181876    -0.9652339695
   10      H      -2.1867806586     0.2831682342    -0.0469690083
   11      H      -0.9010078988     2.3780988519    -0.8173079226
   12      C      -0.4857499469    -0.3563048210     1.2467666493
   13      H      -0.9871432278    -1.0202014725     1.9499527041
 ----------------------------------------------------------------

    2    -286.7871784705      5.66E-09 Convergence criterion met
 Total energy in the final basis set = -286.78717847

                    Orbital Energies (a.u.)
 --------------------------------------------------------------

 Alpha MOs
 -- Occupied --
-14.328 -10.226 -10.221 -10.220 -10.219 -10.216 -10.202  -0.948
 -0.840  -0.759  -0.657  -0.615  -0.586  -0.534  -0.494  -0.462
 -0.444  -0.423  -0.397  -0.378  -0.331  -0.291  -0.264  -0.241
 -0.157

 Beta MOs
 -- Occupied --
-14.329 -10.225 -10.221 -10.220 -10.219 -10.203 -10.198  -0.946
 -0.834  -0.752  -0.649  -0.611  -0.573  -0.530  -0.488  -0.459
 -0.440  -0.421  -0.392  -0.375  -0.315  -0.281  -0.261  -0.219

          Ground-State Mulliken Net Atomic Charges

     Atom                 Charge (a.u.)    Spin (a.u.)
  --------------------------------------------------------
      1 C                    -0.038348       0.011262
      2 C                    -0.055098       0.317685
      3 C                    -0.169456      -0.067827
      4 C                    -0.217384      -0.018886
      5 C                     0.107325       0.048589
      6 N                    -0.337374      -0.014960
      7 H                     0.138470       0.001514
      8 H                     0.150875      -0.018361
      9 H                     0.155363       0.001217
     10 H                     0.148178       0.022274
     11 H                     0.146946      -0.002605
     12 C                    -0.179762       0.718015
     13 H                     0.150265       0.002083
  --------------------------------------------------------
  Sum of atomic charges =     0.000000

                    Cartesian Multipole Moments
 -----------------------------------------------------------------
    Charge (ESU x 10^10)
                 0.0000
    Dipole Moment (Debye)
         X      -1.7296      Y      -1.8734      Z      -0.4279
       Tot       2.5854
    Quadrupole Moments (Debye-Ang)
        XX     -37.4652     XY      -3.3076     YY     -41.2966
        XZ       0.7265     YZ       0.3556     ZZ     -41.9472

 Frequency:      -417.77                -192.81                 420.89
 Force Cnst:      0.3397                 0.1948                 0.4097
 Red. Mass:       3.3037                 8.8953                 3.9254
 IR Intens:       29.843                  3.544                  3.928
 Frequency:       470.07                 519.23                 540.57
 Force Cnst:      0.2931                 0.3970                 0.6063
 Red. Mass:       2.2513                 2.4990                 3.5217
 IR Intens:        9.902                 22.575                  5.828
 Frequency:       644.32                 695.52                 725.57
 Force Cnst:      0.4361                 0.5077                 0.6373
 Red. Mass:       1.7828                 1.7813                 2.0545
 IR Intens:        5.061                 25.237                 42.957
 Frequency:       757.56                 829.21                 876.25
 Force Cnst:      0.6332                 0.6484                 0.8770
 Red. Mass:       1.8726                 1.6005                 1.9386
 IR Intens:       13.850                  4.932                  0.458
 Frequency:       897.56                 911.57                 936.62
 Force Cnst:      0.8242                 0.9606                 0.9741
 Red. Mass:       1.7365                 1.9620                 1.8845
 IR Intens:       33.065                 25.696                  2.349
 Frequency:       984.85                1021.40                1062.12
 Force Cnst:      1.2386                 1.6649                 1.5137
 Red. Mass:       2.1675                 2.7086                 2.2773
 IR Intens:        5.524                 13.514                  6.381
 Frequency:      1104.94                1121.71                1160.97
 Force Cnst:      0.9177                 1.1306                 1.3564
 Red. Mass:       1.2757                 1.5251                 1.7080
 IR Intens:        6.191                  5.599                  8.359
 Frequency:      1312.23                1332.44                1367.54
 Force Cnst:      1.9449                 1.3381                 1.7412
 Red. Mass:       1.9170                 1.2793                 1.5803
 IR Intens:       21.673                  1.367                 12.288
 Frequency:      1409.65                1469.55                1671.51
 Force Cnst:      2.7245                 2.9644                12.1061
 Red. Mass:       2.3271                 2.3298                 7.3542
 IR Intens:       14.725                  3.522                 20.450
 Frequency:      3091.35                3165.82                3174.35
 Force Cnst:      6.1237                 6.4435                 6.4840
 Red. Mass:       1.0876                 1.0912                 1.0921
 IR Intens:       20.017                 21.918                 23.949
 Frequency:      3182.06                3217.23                3243.75
 Force Cnst:      6.5059                 6.6470                 6.7914
 Red. Mass:       1.0905                 1.0900                 1.0955
 IR Intens:       14.954                  6.019                  4.626

 STANDARD THERMODYNAMIC QUANTITIES AT   298.15 K  AND     1.00 ATM

   This Molecule has  2 Imaginary Frequencies
   Zero point vibrational energy:       61.927 kcal/mol

   Atom    1 Element C  Has Mass   12.00000
   Atom    2 Element C  Has Mass   12.00000
   Atom    3 Element C  Has Mass   12.00000
   Atom    4 Element C  Has Mass   12.00000
   Atom    5 Element C  Has Mass   12.00000
   Atom    6 Element N  Has Mass   14.00307
   Atom    7 Element H  Has Mass    1.00783
   Atom    8 Element H  Has Mass    1.00783
   Atom    9 Element H  Has Mass    1.00783
   Atom   10 Element H  Has Mass    1.00783
   Atom   11 Element H  Has Mass    1.00783
   Atom   12 Element C  Has Mass   12.00000
   Atom   13 Element H  Has Mass    1.00783
   Molecular Mass:    92.050050 amu
   Principal axes and moments of inertia in amu*Bohr^2:
                             1           2           3
    Eigenvalues --      403.48633   462.32714   634.36138
          X               0.39874     0.90715     0.13448
          Y               0.90827    -0.41091     0.07878
          Z              -0.12672    -0.09073     0.98778
   Rotational Symmetry Number is   1
   The Molecule is an Asymmetric Top
   Translational Enthalpy:        0.889 kcal/mol
   Rotational Enthalpy:           0.889 kcal/mol
   Vibrational Enthalpy:         63.109 kcal/mol
   gas constant (RT):             0.592 kcal/mol
   Translational Entropy:        39.471  cal/mol.K
   Rotational Entropy:           26.273  cal/mol.K
   Vibrational Entropy:           5.279  cal/mol.K

   Total Enthalpy:               65.479 kcal/mol
   Total Entropy:                71.023  cal/mol.K

 Total job time:  310.04s(wall), 264.07s(cpu)
        *  Thank you very much for using Q-Chem.  Have a nice day.  *
