 Q-Chem 5.0, Q-Chem, Inc., Pleasanton, CA (2017)
 Q-Chem 5.0.2 for Intel X86 EM64T Linux

User input:
--------------------------------------------------------------
$molecule
0 2
C        1.3666804862    0.2926692517    0.2507176877
C        1.0322188276   -0.8421316946   -0.5780694130
C       -0.3969526543   -1.0249879706   -0.3808636951
C       -1.1287860054    0.3408361157    0.0261340738
C       -0.3903912191    1.5467467748   -0.3769776505
N        0.8744323055    1.5453022386   -0.1601403627
H        2.3229198669    0.3416930346    0.7699811991
H        1.7095049962   -1.6703717282   -0.7558287194
H       -0.9932038677   -1.8218894196   -0.8178528545
H       -2.2159672318    0.3319481360   -0.0335630720
H       -0.8669992837    2.3863184024   -0.8810126839
C       -0.4526338754   -0.4928670327    1.0335573954
H       -0.9065641245   -0.9587048489    1.9072309390
$end

$rem
method                b3lyp
basis                 6-31g(d)
unrestricted          true
symmetry              off
sym_ignore            true
incdft                false
incfock               0
scf_convergence       8
thresh                14
jobtype               sp
scf_guess             read
scf_algorithm         diis
max_scf_cycles        100
$end

--------------------------------------------------------------

             Standard Nuclear Orientation (Angstroms)
    I     Atom           X                Y                Z
 ----------------------------------------------------------------
    1      C       1.3666804862     0.2926692517     0.2507176877
    2      C       1.0322188276    -0.8421316946    -0.5780694130
    3      C      -0.3969526543    -1.0249879706    -0.3808636951
    4      C      -1.1287860054     0.3408361157     0.0261340738
    5      C      -0.3903912191     1.5467467748    -0.3769776505
    6      N       0.8744323055     1.5453022386    -0.1601403627
    7      H       2.3229198669     0.3416930346     0.7699811991
    8      H       1.7095049962    -1.6703717282    -0.7558287194
    9      H      -0.9932038677    -1.8218894196    -0.8178528545
   10      H      -2.2159672318     0.3319481360    -0.0335630720
   11      H      -0.8669992837     2.3863184024    -0.8810126839
   12      C      -0.4526338754    -0.4928670327     1.0335573954
   13      H      -0.9065641245    -0.9587048489     1.9072309390
 ----------------------------------------------------------------

    2    -286.8056467591      3.67E-09 Convergence criterion met
 Total energy in the final basis set = -286.80564676

                    Orbital Energies (a.u.)
 --------------------------------------------------------------

 Alpha MOs
 -- Occupied --
-14.327 -10.233 -10.226 -10.215 -10.212 -10.207 -10.197  -0.953
 -0.860  -0.761  -0.654  -0.623  -0.569  -0.534  -0.503  -0.467
 -0.445  -0.421  -0.405  -0.359  -0.339  -0.280  -0.273  -0.245
 -0.170

 Beta MOs
 -- Occupied --
-14.327 -10.235 -10.226 -10.216 -10.212 -10.197 -10.187  -0.951
 -0.852  -0.752  -0.644  -0.622  -0.559  -0.531  -0.495  -0.462
 -0.442  -0.418  -0.396  -0.357  -0.321  -0.281  -0.271  -0.227

          Ground-State Mulliken Net Atomic Charges

     Atom                 Charge (a.u.)    Spin (a.u.)
  --------------------------------------------------------
      1 C                    -0.062465      -0.177528
      2 C                    -0.047227       0.724831
      3 C                    -0.169369      -0.078115
      4 C                    -0.196374       0.013420
      5 C                     0.112115      -0.032690
      6 N                    -0.340714       0.020501
      7 H                     0.141811       0.011093
      8 H                     0.145771      -0.036019
      9 H                     0.147940       0.001488
     10 H                     0.150868       0.019504
     11 H                     0.147721       0.002608
     12 C                    -0.170227       0.518922
     13 H                     0.140152       0.011985
  --------------------------------------------------------
  Sum of atomic charges =     0.000000

                    Cartesian Multipole Moments
 -----------------------------------------------------------------
    Charge (ESU x 10^10)
                -0.0000
    Dipole Moment (Debye)
         X      -1.5927      Y      -1.6192      Z      -0.0263
       Tot       2.2714
    Quadrupole Moments (Debye-Ang)
        XX     -37.5718     XY      -3.3481     YY     -41.3013
        XZ       1.0819     YZ      -0.2131     ZZ     -41.5806

 Total job time:  13.60s(wall), 7.05s(cpu)
        *  Thank you very much for using Q-Chem.  Have a nice day.  *
