 Q-Chem 5.0, Q-Chem, Inc., Pleasanton, CA (2017)
 Q-Chem 5.0.2 for Intel X86 EM64T Linux

User input:
--------------------------------------------------------------
$molecule
0 2
C        1.4102593078    0.3067171272    0.2236715233
C        0.9970737156   -0.8756588561   -0.4729363080
C       -0.4097842121   -0.9622485335   -0.5120660541
C       -1.0940602419    0.2726526969    0.0222721248
C       -0.3862147814    1.5188972988   -0.3879238546
N        0.8804424877    1.5381870236   -0.2084315810
H        2.4059749072    0.3739874427    0.6581583967
H        1.6672928262   -1.6991155453   -0.6866398562
H       -0.9560440564   -1.7836181876   -0.9652339695
H       -2.1867806586    0.2831682342   -0.0469690083
H       -0.9010078988    2.3780988519   -0.8173079226
C       -0.4857499469   -0.3563048210    1.2467666493
H       -0.9871432278   -1.0202014725    1.9499527041
$end

$rem
method                b3lyp
basis                 6-31g(d)
unrestricted          true
symmetry              off
sym_ignore            true
incdft                false
incfock               0
scf_convergence       6
thresh                14
jobtype               sp
scf_guess             read
scf_algorithm         diis
max_scf_cycles        100
stability_analysis    true
max_cis_cycles        100
cis_n_roots           4
$end

--------------------------------------------------------------

             Standard Nuclear Orientation (Angstroms)
    I     Atom           X                Y                Z
 ----------------------------------------------------------------
    1      C       1.4102593078     0.3067171272     0.2236715233
    2      C       0.9970737156    -0.8756588561    -0.4729363080
    3      C      -0.4097842121    -0.9622485335    -0.5120660541
    4      C      -1.0940602419     0.2726526969     0.0222721248
    5      C      -0.3862147814     1.5188972988    -0.3879238546
    6      N       0.8804424877     1.5381870236    -0.2084315810
    7      H       2.4059749072     0.3739874427     0.6581583967
    8      H       1.6672928262    -1.6991155453    -0.6866398562
    9      H      -0.9560440564    -1.7836181876    -0.9652339695
   10      H      -2.1867806586     0.2831682342    -0.0469690083
   11      H      -0.9010078988     2.3780988519    -0.8173079226
   12      C      -0.4857499469    -0.3563048210     1.2467666493
   13      H      -0.9871432278    -1.0202014725     1.9499527041
 ----------------------------------------------------------------

    2    -286.7871784705      6.63E-09 Convergence criterion met
 Total energy in the final basis set = -286.78717847

         TDDFT/TDA Excitation Energies
 ---------------------------------------------------

 Excited state   1: excitation energy (eV) =    1.8641
 Total energy for state  1:                  -286.71867521 au
    <S**2>     :  0.9276
    Trans. Mom.:  0.0244 X   0.4247 Y   0.0823 Z
    Strength   :     0.0085754162
    S(  1) --> V(  1) amplitude =  0.9593 alpha
    S(  1) --> V(  2) amplitude =  0.1551 alpha

 Excited state   2: excitation energy (eV) =    2.9679
 Total energy for state  2:                  -286.67811105 au
    <S**2>     :  1.4364
    Trans. Mom.: -0.1362 X  -0.1887 Y   0.1967 Z
    Strength   :     0.0067516261
    D( 24) --> V(  1) amplitude = -0.4691 alpha
    D( 24) --> V(  2) amplitude = -0.1536 alpha
    D( 24) --> S(  1) amplitude =  0.8455 beta

 Excited state   3: excitation energy (eV) =    3.3796
 Total energy for state  3:                  -286.66297906 au
    <S**2>     :  0.9910
    Trans. Mom.:  0.0993 X  -0.2948 Y   0.0358 Z
    Strength   :     0.0081185891
    S(  1) --> V(  2) amplitude =  0.9274 alpha
    D( 24) --> V(  1) amplitude = -0.1612 beta

 Excited state   4: excitation energy (eV) =    3.6876
 Total energy for state  4:                  -286.65166095 au
    <S**2>     :  1.9030
    Trans. Mom.:  0.0743 X  -0.0735 Y  -0.0768 Z
    Strength   :     0.0015182416
    D( 24) --> V(  1) amplitude = -0.4534 alpha
    S(  1) --> V(  2) amplitude =  0.1772 alpha
    S(  1) --> V(  3) amplitude = -0.1730 alpha
    D( 24) --> S(  1) amplitude = -0.2897 beta
    D( 24) --> V(  1) amplitude =  0.7404 beta
    D( 24) --> V(  2) amplitude =  0.2384 beta

 ---------------------------------------------------

                    Orbital Energies (a.u.)
 --------------------------------------------------------------

 Alpha MOs
 -- Occupied --
-14.328 -10.226 -10.221 -10.220 -10.219 -10.216 -10.202  -0.948
 -0.840  -0.759  -0.657  -0.615  -0.586  -0.534  -0.494  -0.462
 -0.444  -0.423  -0.397  -0.378  -0.331  -0.291  -0.264  -0.241
 -0.157

 Beta MOs
 -- Occupied --
-14.329 -10.225 -10.221 -10.220 -10.219 -10.203 -10.198  -0.946
 -0.834  -0.752  -0.649  -0.611  -0.573  -0.530  -0.488  -0.459
 -0.440  -0.421  -0.392  -0.375  -0.315  -0.281  -0.261  -0.219

          Ground-State Mulliken Net Atomic Charges

     Atom                 Charge (a.u.)    Spin (a.u.)
  --------------------------------------------------------
      1 C                    -0.038348       0.011260
      2 C                    -0.055098       0.317686
      3 C                    -0.169456      -0.067828
      4 C                    -0.217384      -0.018887
      5 C                     0.107325       0.048595
      6 N                    -0.337374      -0.014965
      7 H                     0.138470       0.001514
      8 H                     0.150875      -0.018361
      9 H                     0.155363       0.001217
     10 H                     0.148178       0.022274
     11 H                     0.146946      -0.002605
     12 C                    -0.179762       0.718018
     13 H                     0.150265       0.002083
  --------------------------------------------------------
  Sum of atomic charges =     0.000000

                    Cartesian Multipole Moments
 -----------------------------------------------------------------
    Charge (ESU x 10^10)
                -0.0000
    Dipole Moment (Debye)
         X      -1.7296      Y      -1.8734      Z      -0.4279
       Tot       2.5854
    Quadrupole Moments (Debye-Ang)
        XX     -37.4652     XY      -3.3076     YY     -41.2966
        XZ       0.7265     YZ       0.3556     ZZ     -41.9472

 Total job time:  144.89s(wall), 92.26s(cpu)
        *  Thank you very much for using Q-Chem.  Have a nice day.  *
