 Q-Chem 5.0, Q-Chem, Inc., Pleasanton, CA (2017)
 Q-Chem 5.0.2 for Intel X86 EM64T Linux

User input:
--------------------------------------------------------------
$molecule
0 2
C        1.3666804862    0.2926692517    0.2507176877
C        1.0322188276   -0.8421316946   -0.5780694130
C       -0.3969526543   -1.0249879706   -0.3808636951
C       -1.1287860054    0.3408361157    0.0261340738
C       -0.3903912191    1.5467467748   -0.3769776505
N        0.8744323055    1.5453022386   -0.1601403627
H        2.3229198669    0.3416930346    0.7699811991
H        1.7095049962   -1.6703717282   -0.7558287194
H       -0.9932038677   -1.8218894196   -0.8178528545
H       -2.2159672318    0.3319481360   -0.0335630720
H       -0.8669992837    2.3863184024   -0.8810126839
C       -0.4526338754   -0.4928670327    1.0335573954
H       -0.9065641245   -0.9587048489    1.9072309390
$end

$rem
method                b3lyp
basis                 6-31+g(d,p)
unrestricted          true
symmetry              off
sym_ignore            true
incdft                false
incfock               0
scf_convergence       8
thresh                14
jobtype               freq
scf_guess             read
scf_algorithm         diis
max_scf_cycles        100
$end

--------------------------------------------------------------

             Standard Nuclear Orientation (Angstroms)
    I     Atom           X                Y                Z
 ----------------------------------------------------------------
    1      C       1.3666804862     0.2926692517     0.2507176877
    2      C       1.0322188276    -0.8421316946    -0.5780694130
    3      C      -0.3969526543    -1.0249879706    -0.3808636951
    4      C      -1.1287860054     0.3408361157     0.0261340738
    5      C      -0.3903912191     1.5467467748    -0.3769776505
    6      N       0.8744323055     1.5453022386    -0.1601403627
    7      H       2.3229198669     0.3416930346     0.7699811991
    8      H       1.7095049962    -1.6703717282    -0.7558287194
    9      H      -0.9932038677    -1.8218894196    -0.8178528545
   10      H      -2.2159672318     0.3319481360    -0.0335630720
   11      H      -0.8669992837     2.3863184024    -0.8810126839
   12      C      -0.4526338754    -0.4928670327     1.0335573954
   13      H      -0.9065641245    -0.9587048489     1.9072309390
 ----------------------------------------------------------------

    2    -286.8277089943      9.42E-10 Convergence criterion met
 Total energy in the final basis set = -286.82770899

                    Orbital Energies (a.u.)
 --------------------------------------------------------------

 Alpha MOs
 -- Occupied --
-14.341 -10.244 -10.236 -10.226 -10.223 -10.219 -10.210  -0.966
 -0.872  -0.773  -0.664  -0.634  -0.578  -0.543  -0.511  -0.477
 -0.454  -0.431  -0.415  -0.368  -0.350  -0.292  -0.284  -0.257
 -0.182

 Beta MOs
 -- Occupied --
-14.341 -10.247 -10.237 -10.227 -10.223 -10.210 -10.200  -0.963
 -0.864  -0.763  -0.655  -0.632  -0.569  -0.540  -0.503  -0.472
 -0.451  -0.428  -0.406  -0.366  -0.333  -0.293  -0.282  -0.240

          Ground-State Mulliken Net Atomic Charges

     Atom                 Charge (a.u.)    Spin (a.u.)
  --------------------------------------------------------
      1 C                    -0.131886      -0.198669
      2 C                    -0.004465       0.759836
      3 C                    -0.127077      -0.085328
      4 C                    -0.072779      -0.016189
      5 C                    -0.061831      -0.054304
      6 N                    -0.150692       0.039091
      7 H                     0.127325       0.010343
      8 H                     0.140867      -0.036202
      9 H                     0.140131       0.001218
     10 H                     0.142429       0.020706
     11 H                     0.133887       0.002644
     12 C                    -0.265360       0.544105
     13 H                     0.129451       0.012751
  --------------------------------------------------------
  Sum of atomic charges =    -0.000000

                    Cartesian Multipole Moments
 -----------------------------------------------------------------
    Charge (ESU x 10^10)
                -0.0000
    Dipole Moment (Debye)
         X      -1.7867      Y      -1.8093      Z       0.1189
       Tot       2.5456
    Quadrupole Moments (Debye-Ang)
        XX     -38.6973     XY      -3.8252     YY     -42.6677
        XZ       1.4087     YZ      -0.2354     ZZ     -43.2354

 Frequency:      -623.05                 338.09                 408.83
 Force Cnst:      1.0101                 0.0971                 0.2806
 Red. Mass:       4.4166                 1.4420                 2.8489
 IR Intens:       29.008                 44.035                  7.310
 Frequency:       494.93                 564.94                 604.92
 Force Cnst:      0.6553                 1.0922                 0.7608
 Red. Mass:       4.5408                 5.8082                 3.5287
 IR Intens:        2.439                  6.436                  7.842
 Frequency:       627.46                 734.06                 799.06
 Force Cnst:      1.1352                 0.9471                 0.5043
 Red. Mass:       4.8938                 2.9831                 1.3404
 IR Intens:       18.134                 29.289                  2.343
 Frequency:       837.19                 859.73                 908.26
 Force Cnst:      0.6151                 1.3292                 0.7357
 Red. Mass:       1.4896                 3.0523                 1.5137
 IR Intens:       12.661                 27.731                 20.439
 Frequency:       946.89                 959.51                 961.99
 Force Cnst:      1.1049                 1.0579                 0.8664
 Red. Mass:       2.0916                 1.9503                 1.5889
 IR Intens:        5.295                  9.250                 36.142
 Frequency:      1024.91                1033.87                1055.44
 Force Cnst:      1.0039                 0.9404                 1.1660
 Red. Mass:       1.6221                 1.4932                 1.7766
 IR Intens:        9.509                  9.543                  4.079
 Frequency:      1071.04                1122.53                1149.39
 Force Cnst:      1.2083                 1.2941                 1.4705
 Red. Mass:       1.7878                 1.7432                 1.8892
 IR Intens:        7.340                 18.560                 16.158
 Frequency:      1298.04                1323.52                1357.21
 Force Cnst:      1.3080                 2.8225                 1.6871
 Red. Mass:       1.3176                 2.7348                 1.5546
 IR Intens:        2.959                 10.675                 16.037
 Frequency:      1365.02                1407.62                1654.19
 Force Cnst:      2.6371                 2.0158                11.9811
 Red. Mass:       2.4022                 1.7267                 7.4315
 IR Intens:       34.526                  8.696                 32.062
 Frequency:      3141.93                3152.88                3158.18
 Force Cnst:      6.3265                 6.3943                 6.4025
 Red. Mass:       1.0877                 1.0918                 1.0895
 IR Intens:       13.799                 12.444                 18.750
 Frequency:      3174.96                3178.49                3216.34
 Force Cnst:      6.4926                 6.5087                 6.6616
 Red. Mass:       1.0932                 1.0935                 1.0930
 IR Intens:       18.811                 21.109                  4.752

 STANDARD THERMODYNAMIC QUANTITIES AT   298.15 K  AND     1.00 ATM

   This Molecule has  1 Imaginary Frequencies
   Zero point vibrational energy:       62.803 kcal/mol

   Atom    1 Element C  Has Mass   12.00000
   Atom    2 Element C  Has Mass   12.00000
   Atom    3 Element C  Has Mass   12.00000
   Atom    4 Element C  Has Mass   12.00000
   Atom    5 Element C  Has Mass   12.00000
   Atom    6 Element N  Has Mass   14.00307
   Atom    7 Element H  Has Mass    1.00783
   Atom    8 Element H  Has Mass    1.00783
   Atom    9 Element H  Has Mass    1.00783
   Atom   10 Element H  Has Mass    1.00783
   Atom   11 Element H  Has Mass    1.00783
   Atom   12 Element C  Has Mass   12.00000
   Atom   13 Element H  Has Mass    1.00783
   Molecular Mass:    92.050050 amu
   Principal axes and moments of inertia in amu*Bohr^2:
                             1           2           3
    Eigenvalues --      384.22351   451.49929   646.61518
          X               0.27328     0.95516     0.11396
          Y               0.95688    -0.28206     0.06939
          Z              -0.09842    -0.09008     0.99106
   Rotational Symmetry Number is   1
   The Molecule is an Asymmetric Top
   Translational Enthalpy:        0.889 kcal/mol
   Rotational Enthalpy:           0.889 kcal/mol
   Vibrational Enthalpy:         64.117 kcal/mol
   gas constant (RT):             0.592 kcal/mol
   Translational Entropy:        39.471  cal/mol.K
   Rotational Entropy:           26.220  cal/mol.K
   Vibrational Entropy:           6.009  cal/mol.K

   Total Enthalpy:               66.487 kcal/mol
   Total Entropy:                71.700  cal/mol.K

 Total job time:  642.09s(wall), 549.52s(cpu)
        *  Thank you very much for using Q-Chem.  Have a nice day.  *
