 Q-Chem 5.0, Q-Chem, Inc., Pleasanton, CA (2017)
 Q-Chem 5.0.2 for Intel X86 EM64T Linux

User input:
--------------------------------------------------------------
$molecule
0 2
C        1.3666804862    0.2926692517    0.2507176877
C        1.0322188276   -0.8421316946   -0.5780694130
C       -0.3969526543   -1.0249879706   -0.3808636951
C       -1.1287860054    0.3408361157    0.0261340738
C       -0.3903912191    1.5467467748   -0.3769776505
N        0.8744323055    1.5453022386   -0.1601403627
H        2.3229198669    0.3416930346    0.7699811991
H        1.7095049962   -1.6703717282   -0.7558287194
H       -0.9932038677   -1.8218894196   -0.8178528545
H       -2.2159672318    0.3319481360   -0.0335630720
H       -0.8669992837    2.3863184024   -0.8810126839
C       -0.4526338754   -0.4928670327    1.0335573954
H       -0.9065641245   -0.9587048489    1.9072309390
$end

$rem
method                b3lyp
basis                 6-31+g(d,p)
unrestricted          true
symmetry              off
sym_ignore            true
incdft                false
incfock               0
scf_convergence       6
thresh                14
jobtype               sp
scf_guess             read
scf_algorithm         diis
max_scf_cycles        100
stability_analysis    true
max_cis_cycles        100
cis_n_roots           4
$end

--------------------------------------------------------------

             Standard Nuclear Orientation (Angstroms)
    I     Atom           X                Y                Z
 ----------------------------------------------------------------
    1      C       1.3666804862     0.2926692517     0.2507176877
    2      C       1.0322188276    -0.8421316946    -0.5780694130
    3      C      -0.3969526543    -1.0249879706    -0.3808636951
    4      C      -1.1287860054     0.3408361157     0.0261340738
    5      C      -0.3903912191     1.5467467748    -0.3769776505
    6      N       0.8744323055     1.5453022386    -0.1601403627
    7      H       2.3229198669     0.3416930346     0.7699811991
    8      H       1.7095049962    -1.6703717282    -0.7558287194
    9      H      -0.9932038677    -1.8218894196    -0.8178528545
   10      H      -2.2159672318     0.3319481360    -0.0335630720
   11      H      -0.8669992837     2.3863184024    -0.8810126839
   12      C      -0.4526338754    -0.4928670327     1.0335573954
   13      H      -0.9065641245    -0.9587048489     1.9072309390
 ----------------------------------------------------------------

    2    -286.8277089943      1.83E-09 Convergence criterion met
 Total energy in the final basis set = -286.82770899

         TDDFT/TDA Excitation Energies
 ---------------------------------------------------

 Excited state   1: excitation energy (eV) =    2.3806
 Total energy for state  1:                  -286.74022230 au
    <S**2>     :  0.7684
    Trans. Mom.:  0.0946 X  -0.2591 Y  -0.2151 Z
    Strength   :     0.0071354291
    S(  1) --> V(  1) amplitude =  0.9182 alpha
    D( 24) --> S(  1) amplitude =  0.3425 beta

 Excited state   2: excitation energy (eV) =    3.2969
 Total energy for state  2:                  -286.70655043 au
    <S**2>     :  1.3448
    Trans. Mom.: -0.2267 X   0.0495 Y   0.3032 Z
    Strength   :     0.0117752636
    D( 24) --> V(  1) amplitude = -0.3037 alpha
    S(  1) --> V(  1) amplitude = -0.3212 alpha
    S(  1) --> V(  3) amplitude =  0.1886 alpha
    D( 24) --> S(  1) amplitude =  0.7974 beta
    D( 24) --> V(  1) amplitude =  0.2414 beta

 Excited state   3: excitation energy (eV) =    3.9058
 Total energy for state  3:                  -286.68417286 au
    <S**2>     :  1.4161
    Trans. Mom.:  0.0061 X   0.1160 Y  -0.1449 Z
    Strength   :     0.0032987493
    D( 24) --> V(  1) amplitude =  0.4059 alpha
    S(  1) --> V(  2) amplitude =  0.4704 alpha
    S(  1) --> V(  3) amplitude =  0.6352 alpha
    D( 24) --> V(  1) amplitude = -0.3893 beta

 Excited state   4: excitation energy (eV) =    4.0047
 Total energy for state  4:                  -286.68053984 au
    <S**2>     :  1.4917
    Trans. Mom.: -0.2276 X   0.0105 Y   0.3792 Z
    Strength   :     0.0192047346
    D( 24) --> V(  1) amplitude =  0.3666 alpha
    S(  1) --> V(  2) amplitude = -0.4140 alpha
    S(  1) --> V(  3) amplitude = -0.3068 alpha
    D( 24) --> S(  1) amplitude =  0.4184 beta
    D( 24) --> V(  1) amplitude = -0.5643 beta

 ---------------------------------------------------

                    Orbital Energies (a.u.)
 --------------------------------------------------------------

 Alpha MOs
 -- Occupied --
-14.341 -10.244 -10.236 -10.226 -10.223 -10.219 -10.210  -0.966
 -0.872  -0.773  -0.664  -0.634  -0.578  -0.543  -0.511  -0.477
 -0.454  -0.431  -0.415  -0.368  -0.350  -0.292  -0.284  -0.257
 -0.182

 Beta MOs
 -- Occupied --
-14.341 -10.247 -10.237 -10.227 -10.223 -10.210 -10.200  -0.963
 -0.864  -0.763  -0.655  -0.632  -0.569  -0.540  -0.503  -0.472
 -0.451  -0.428  -0.406  -0.366  -0.333  -0.293  -0.282  -0.240

          Ground-State Mulliken Net Atomic Charges

     Atom                 Charge (a.u.)    Spin (a.u.)
  --------------------------------------------------------
      1 C                    -0.131886      -0.198670
      2 C                    -0.004465       0.759836
      3 C                    -0.127077      -0.085329
      4 C                    -0.072779      -0.016189
      5 C                    -0.061831      -0.054306
      6 N                    -0.150692       0.039094
      7 H                     0.127325       0.010343
      8 H                     0.140867      -0.036202
      9 H                     0.140131       0.001218
     10 H                     0.142429       0.020706
     11 H                     0.133887       0.002644
     12 C                    -0.265360       0.544105
     13 H                     0.129451       0.012751
  --------------------------------------------------------
  Sum of atomic charges =    -0.000000

                    Cartesian Multipole Moments
 -----------------------------------------------------------------
    Charge (ESU x 10^10)
                -0.0000
    Dipole Moment (Debye)
         X      -1.7867      Y      -1.8093      Z       0.1189
       Tot       2.5456
    Quadrupole Moments (Debye-Ang)
        XX     -38.6973     XY      -3.8252     YY     -42.6677
        XZ       1.4087     YZ      -0.2354     ZZ     -43.2354

 Total job time:  319.07s(wall), 218.37s(cpu)
        *  Thank you very much for using Q-Chem.  Have a nice day.  *
