 Q-Chem 5.0, Q-Chem, Inc., Pleasanton, CA (2017)
 Q-Chem 5.0.2 for Intel X86 EM64T Linux

User input:
--------------------------------------------------------------
$molecule
0 2
C        1.3671138301    0.2915646631    0.2562294130
C        1.0306215280   -0.8469022956   -0.5697244840
C       -0.3971554733   -1.0280557654   -0.3809151903
C       -1.1309559008    0.3430063874    0.0255971610
C       -0.3915608927    1.5466501493   -0.3801693408
N        0.8740001741    1.5430637700   -0.1562367706
H        2.3212675781    0.3393828639    0.7774155469
H        1.7130595547   -1.6632018612   -0.7776282900
H       -0.9928724149   -1.8263145952   -0.8142595419
H       -2.2177655313    0.3343249773   -0.0354882777
H       -0.8648030414    2.3857034573   -0.8861017238
C       -0.4558275421   -0.4897744040    1.0334147233
H       -0.9008636479   -0.9548860878    1.9111796187
$end

$rem
method                b3lyp
basis                 6-31+g(d,p)
unrestricted          true
symmetry              off
sym_ignore            true
incdft                false
incfock               0
scf_convergence       8
thresh                14
jobtype               freq
scf_guess             read
scf_algorithm         diis
max_scf_cycles        100
$end

--------------------------------------------------------------

             Standard Nuclear Orientation (Angstroms)
    I     Atom           X                Y                Z
 ----------------------------------------------------------------
    1      C       1.3671138301     0.2915646631     0.2562294130
    2      C       1.0306215280    -0.8469022956    -0.5697244840
    3      C      -0.3971554733    -1.0280557654    -0.3809151903
    4      C      -1.1309559008     0.3430063874     0.0255971610
    5      C      -0.3915608927     1.5466501493    -0.3801693408
    6      N       0.8740001741     1.5430637700    -0.1562367706
    7      H       2.3212675781     0.3393828639     0.7774155469
    8      H       1.7130595547    -1.6632018612    -0.7776282900
    9      H      -0.9928724149    -1.8263145952    -0.8142595419
   10      H      -2.2177655313     0.3343249773    -0.0354882777
   11      H      -0.8648030414     2.3857034573    -0.8861017238
   12      C      -0.4558275421    -0.4897744040     1.0334147233
   13      H      -0.9008636479    -0.9548860878     1.9111796187
 ----------------------------------------------------------------

    2    -286.8277536405      2.57E-10 Convergence criterion met
 Total energy in the final basis set = -286.82775364

                    Orbital Energies (a.u.)
 --------------------------------------------------------------

 Alpha MOs
 -- Occupied --
-14.341 -10.244 -10.236 -10.226 -10.224 -10.219 -10.210  -0.965
 -0.871  -0.772  -0.664  -0.634  -0.578  -0.543  -0.512  -0.477
 -0.454  -0.431  -0.416  -0.369  -0.349  -0.292  -0.284  -0.256
 -0.181

 Beta MOs
 -- Occupied --
-14.341 -10.246 -10.237 -10.227 -10.223 -10.209 -10.200  -0.962
 -0.863  -0.763  -0.655  -0.632  -0.568  -0.540  -0.504  -0.472
 -0.451  -0.428  -0.407  -0.367  -0.332  -0.292  -0.282  -0.239

          Ground-State Mulliken Net Atomic Charges

     Atom                 Charge (a.u.)    Spin (a.u.)
  --------------------------------------------------------
      1 C                    -0.135956      -0.198317
      2 C                     0.000893       0.755674
      3 C                    -0.130421      -0.087414
      4 C                    -0.071972      -0.014151
      5 C                    -0.064438      -0.051229
      6 N                    -0.150239       0.039854
      7 H                     0.127175       0.010724
      8 H                     0.141477      -0.036383
      9 H                     0.140151       0.001435
     10 H                     0.142281       0.021222
     11 H                     0.134158       0.002586
     12 C                    -0.262497       0.544217
     13 H                     0.129389       0.011781
  --------------------------------------------------------
  Sum of atomic charges =    -0.000000

                    Cartesian Multipole Moments
 -----------------------------------------------------------------
    Charge (ESU x 10^10)
                -0.0000
    Dipole Moment (Debye)
         X      -1.7792      Y      -1.8262      Z       0.0961
       Tot       2.5514
    Quadrupole Moments (Debye-Ang)
        XX     -38.6986     XY      -3.8405     YY     -42.6922
        XZ       1.3749     YZ      -0.2204     ZZ     -43.1611

 Frequency:      -622.91                 318.63                 405.68
 Force Cnst:      1.0010                 0.0813                 0.2995
 Red. Mass:       4.3785                 1.3593                 3.0887
 IR Intens:       27.931                 45.080                  4.663
 Frequency:       489.67                 559.79                 598.79
 Force Cnst:      0.6833                 1.0011                 0.7046
 Red. Mass:       4.8370                 5.4219                 3.3355
 IR Intens:        3.590                  7.859                  7.848
 Frequency:       622.08                 731.87                 794.40
 Force Cnst:      1.2377                 0.9135                 0.4919
 Red. Mass:       5.4284                 2.8946                 1.3229
 IR Intens:       15.560                 29.670                  1.733
 Frequency:       834.66                 856.88                 903.06
 Force Cnst:      0.6128                 1.3967                 0.7185
 Red. Mass:       1.4930                 3.2286                 1.4954
 IR Intens:       11.390                 27.553                 21.295
 Frequency:       943.99                 954.61                 959.04
 Force Cnst:      1.0172                 1.0000                 0.9553
 Red. Mass:       1.9375                 1.8625                 1.7629
 IR Intens:        4.856                 18.925                 27.031
 Frequency:      1021.62                1031.44                1052.72
 Force Cnst:      1.0193                 0.9319                 1.1388
 Red. Mass:       1.6576                 1.4868                 1.7440
 IR Intens:        9.808                  8.590                  4.422
 Frequency:      1068.32                1119.53                1147.27
 Force Cnst:      1.2281                 1.2919                 1.4622
 Red. Mass:       1.8263                 1.7495                 1.8855
 IR Intens:        7.233                 18.775                 15.710
 Frequency:      1295.26                1321.46                1354.63
 Force Cnst:      1.3030                 2.7601                 1.6732
 Red. Mass:       1.3182                 2.6827                 1.5476
 IR Intens:        3.187                 10.592                 15.959
 Frequency:      1363.79                1405.96                1644.34
 Force Cnst:      2.6993                 2.0434                11.6901
 Red. Mass:       2.4632                 1.7545                 7.3381
 IR Intens:       34.659                  8.071                 31.651
 Frequency:      3146.52                3158.09                3167.12
 Force Cnst:      6.3424                 6.4208                 6.4385
 Red. Mass:       1.0873                 1.0927                 1.0894
 IR Intens:       12.957                 13.780                 18.268
 Frequency:      3183.79                3186.13                3221.59
 Force Cnst:      6.5251                 6.5405                 6.6858
 Red. Mass:       1.0926                 1.0935                 1.0934
 IR Intens:       17.895                 19.781                  4.238

 STANDARD THERMODYNAMIC QUANTITIES AT   298.15 K  AND     1.00 ATM

   This Molecule has  1 Imaginary Frequencies
   Zero point vibrational energy:       62.705 kcal/mol

   Atom    1 Element C  Has Mass   12.00000
   Atom    2 Element C  Has Mass   12.00000
   Atom    3 Element C  Has Mass   12.00000
   Atom    4 Element C  Has Mass   12.00000
   Atom    5 Element C  Has Mass   12.00000
   Atom    6 Element N  Has Mass   14.00307
   Atom    7 Element H  Has Mass    1.00783
   Atom    8 Element H  Has Mass    1.00783
   Atom    9 Element H  Has Mass    1.00783
   Atom   10 Element H  Has Mass    1.00783
   Atom   11 Element H  Has Mass    1.00783
   Atom   12 Element C  Has Mass   12.00000
   Atom   13 Element H  Has Mass    1.00783
   Molecular Mass:    92.050050 amu
   Principal axes and moments of inertia in amu*Bohr^2:
                             1           2           3
    Eigenvalues --      384.81181   451.60501   646.95860
          X               0.26762     0.95719     0.11035
          Y               0.95865    -0.27602     0.06935
          Z              -0.09684    -0.08722     0.99147
   Rotational Symmetry Number is   1
   The Molecule is an Asymmetric Top
   Translational Enthalpy:        0.889 kcal/mol
   Rotational Enthalpy:           0.889 kcal/mol
   Vibrational Enthalpy:         64.049 kcal/mol
   gas constant (RT):             0.592 kcal/mol
   Translational Entropy:        39.471  cal/mol.K
   Rotational Entropy:           26.222  cal/mol.K
   Vibrational Entropy:           6.182  cal/mol.K

   Total Enthalpy:               66.419 kcal/mol
   Total Entropy:                71.875  cal/mol.K

 Total job time:  659.62s(wall), 548.54s(cpu)
        *  Thank you very much for using Q-Chem.  Have a nice day.  *
