 Q-Chem 5.0, Q-Chem, Inc., Pleasanton, CA (2017)
 Q-Chem 5.0.2 for Intel X86 EM64T Linux

User input:
--------------------------------------------------------------
$molecule
0 2
C        1.5167238018    0.3971141064   -0.4795135170
C        0.8528758001   -0.7816226035    0.1261445954
C       -0.5925401501   -1.0629742414   -0.2531984901
C       -1.1146988188    0.3149714432    0.1132696753
C       -0.4546603066    1.4960375634   -0.4943343640
N        0.8466819037    1.5095803830   -0.7747615121
H        2.5822989295    0.3740000018   -0.6992134275
H        1.4767085912   -1.6490900353    0.3351312672
H       -1.0847949075   -1.9529046960   -0.6199379679
H       -2.1822715549    0.3918113226    0.3128184767
H       -1.0324335230    2.3891447552   -0.7244592174
C       -0.3064872331   -0.5373723251    1.0777413015
H       -0.5074025323   -0.8886956743    2.0803131798
$end

$rem
method                b3lyp
basis                 6-31g(d)
unrestricted          true
symmetry              off
sym_ignore            true
incdft                false
incfock               0
scf_convergence       8
thresh                14
jobtype               opt
scf_guess             read
scf_algorithm         diis
max_scf_cycles        100
geom_opt_tol_gradient 600
geom_opt_tol_displacement 2400
geom_opt_tol_energy   200
geom_opt_max_cycles   100
$end

--------------------------------------------------------------

    2    -286.8584534010      7.61E-10 Convergence criterion met
 Total energy in the final basis set = -286.85845340
   10    -286.8584558379      5.77E-09 Convergence criterion met
 Total energy in the final basis set = -286.85845584

             Standard Nuclear Orientation (Angstroms)
    I     Atom           X                Y                Z
 ----------------------------------------------------------------
    1      C       1.5164183686     0.3969743057    -0.4802081639
    2      C       0.8530421787    -0.7814352329     0.1267367795
    3      C      -0.5919084519    -1.0632233583    -0.2534470803
    4      C      -1.1148166787     0.3155826777     0.1141846302
    5      C      -0.4546283552     1.4958427223    -0.4937285977
    6      N       0.8464245457     1.5089281204    -0.7767536661
    7      H       2.5823909621     0.3745154263    -0.6982639386
    8      H       1.4771515077    -1.6491699697     0.3341688286
    9      H      -1.0845208494    -1.9528898549    -0.6203428280
   10      H      -2.1825810583     0.3921989234     0.3124629591
   11      H      -1.0319957914     2.3892264299    -0.7239295890
   12      C      -0.3068939015    -0.5385954565     1.0779950496
   13      H      -0.5080824763    -0.8879547334     2.0811256164
 ----------------------------------------------------------------

    9    -286.8584563419      7.23E-09 Convergence criterion met
 Total energy in the final basis set = -286.85845634
 Final energy is   -286.858456341861
 **  OPTIMIZATION CONVERGED  **

                    Orbital Energies (a.u.)
 --------------------------------------------------------------

 Alpha MOs
 -- Occupied --
-14.317 -10.216 -10.216 -10.215 -10.215 -10.215 -10.215  -0.960
 -0.896  -0.750  -0.643  -0.635  -0.589  -0.545  -0.482  -0.471
 -0.465  -0.408  -0.395  -0.365  -0.338  -0.299  -0.298  -0.227
 -0.173

 Beta MOs
 -- Occupied --
-14.320 -10.216 -10.216 -10.213 -10.213 -10.207 -10.207  -0.955
 -0.894  -0.738  -0.631  -0.630  -0.584  -0.542  -0.476  -0.466
 -0.464  -0.405  -0.377  -0.362  -0.323  -0.298  -0.294  -0.227

          Ground-State Mulliken Net Atomic Charges

     Atom                 Charge (a.u.)    Spin (a.u.)
  --------------------------------------------------------
      1 C                     0.076668       0.597264
      2 C                    -0.221136      -0.053383
      3 C                    -0.090020       0.094755
      4 C                    -0.221259      -0.053323
      5 C                     0.076639       0.597031
      6 N                    -0.395281      -0.205348
      7 H                     0.135576      -0.032059
      8 H                     0.142131       0.000520
      9 H                     0.154195      -0.004296
     10 H                     0.142173       0.000517
     11 H                     0.135555      -0.032046
     12 C                    -0.089444       0.094654
     13 H                     0.154203      -0.004286
  --------------------------------------------------------
  Sum of atomic charges =    -0.000000

                    Cartesian Multipole Moments
 -----------------------------------------------------------------
    Charge (ESU x 10^10)
                 0.0000
    Dipole Moment (Debye)
         X      -1.3319      Y      -2.3748      Z       1.2215
       Tot       2.9842
    Quadrupole Moments (Debye-Ang)
        XX     -37.5211     XY      -3.3861     YY     -41.6918
        XZ       0.5359     YZ       0.8893     ZZ     -41.7402

 Total job time:  72.71s(wall), 83.20s(cpu)
        *  Thank you very much for using Q-Chem.  Have a nice day.  *
