 Q-Chem 5.0, Q-Chem, Inc., Pleasanton, CA (2017)
 Q-Chem 5.0.2 for Intel X86 EM64T Linux

User input:
--------------------------------------------------------------
$molecule
0 2
C        1.4905838781    0.4711775155   -0.2292302004
C        0.7027017720   -0.8341092217    0.0002850662
C       -0.3007350927   -0.6077747574   -1.1338531143
C       -1.0746136457    0.4509684029    0.7482589630
C       -0.6415991178    0.8072959350   -0.6825858995
N        0.7443936819    1.4315185571   -0.6151779547
H        2.5600656925    0.5909836336   -0.0641922198
H        1.2696991906   -1.7635565714    0.0537405531
H       -1.0517684345   -1.3480311925   -1.4047025931
H       -1.8666043165    0.9453307314    1.3000824204
H       -1.3276382186    1.4161472669   -1.2694561774
C       -0.2641273627   -0.5357495884    1.1643775688
H       -0.2403580266   -1.0242007111    2.1324535877
$end

$rem
method                b3lyp
basis                 6-31g(d)
unrestricted          true
symmetry              off
sym_ignore            true
incdft                false
incfock               0
scf_convergence       8
thresh                14
jobtype               opt
scf_guess             read
scf_algorithm         diis
max_scf_cycles        100
geom_opt_tol_gradient 600
geom_opt_tol_displacement 2400
geom_opt_tol_energy   200
geom_opt_max_cycles   100
$end

--------------------------------------------------------------

    2    -286.8516486485      5.79E-10 Convergence criterion met
 Total energy in the final basis set = -286.85164865

             Standard Nuclear Orientation (Angstroms)
    I     Atom           X                Y                Z
 ----------------------------------------------------------------
    1      C       1.4915006431     0.4707680448    -0.2299696670
    2      C       0.7031910369    -0.8341733570     0.0005491124
    3      C      -0.3015959138    -0.6076286749    -1.1331193455
    4      C      -1.0757944391     0.4496170892     0.7468420784
    5      C      -0.6409511483     0.8079250059    -0.6831378427
    6      N       0.7450219397     1.4318339807    -0.6138559643
    7      H       2.5608542040     0.5905530057    -0.0641617047
    8      H       1.2700037228    -1.7638462580     0.0532874013
    9      H      -1.0542332194    -1.3469961591    -1.4021137729
   10      H      -1.8691259940     0.9421425045     1.2982820506
   11      H      -1.3267328008     1.4174688686    -1.2697204214
   12      C      -0.2631794381    -0.5346399166     1.1645404603
   13      H      -0.2389585931    -1.0230241339     2.1325776156
 ----------------------------------------------------------------

   11    -286.8516499356      5.71E-09 Convergence criterion met
 Total energy in the final basis set = -286.85164994
 Final energy is   -286.851649935567
 **  OPTIMIZATION CONVERGED  **

                    Orbital Energies (a.u.)
 --------------------------------------------------------------

 Alpha MOs
 -- Occupied --
-14.322 -10.224 -10.220 -10.210 -10.204 -10.201 -10.197  -0.952
 -0.821  -0.726  -0.705  -0.579  -0.573  -0.531  -0.512  -0.472
 -0.418  -0.410  -0.381  -0.373  -0.348  -0.294  -0.271  -0.258
 -0.196

 Beta MOs
 -- Occupied --
-14.321 -10.224 -10.221 -10.210 -10.200 -10.196 -10.190  -0.949
 -0.815  -0.725  -0.690  -0.577  -0.561  -0.527  -0.509  -0.463
 -0.414  -0.406  -0.380  -0.369  -0.342  -0.287  -0.261  -0.255

          Ground-State Mulliken Net Atomic Charges

     Atom                 Charge (a.u.)    Spin (a.u.)
  --------------------------------------------------------
      1 C                     0.092265      -0.008951
      2 C                    -0.246051      -0.043894
      3 C                    -0.096229       0.975641
      4 C                    -0.087811       0.039879
      5 C                    -0.094805      -0.045046
      6 N                    -0.325170       0.022044
      7 H                     0.149701      -0.000170
      8 H                     0.133845       0.002867
      9 H                     0.138828      -0.026527
     10 H                     0.146035       0.000920
     11 H                     0.139880       0.003030
     12 C                    -0.096153       0.079920
     13 H                     0.145664       0.000288
  --------------------------------------------------------
  Sum of atomic charges =     0.000000

                    Cartesian Multipole Moments
 -----------------------------------------------------------------
    Charge (ESU x 10^10)
                 0.0000
    Dipole Moment (Debye)
         X      -0.5660      Y      -1.9432      Z       1.2412
       Tot       2.3742
    Quadrupole Moments (Debye-Ang)
        XX     -36.9425     XY      -3.3747     YY     -43.6451
        XZ       1.3206     YZ       0.7088     ZZ     -40.8914

 Total job time:  68.50s(wall), 53.18s(cpu)
        *  Thank you very much for using Q-Chem.  Have a nice day.  *
