 Q-Chem 5.0, Q-Chem, Inc., Pleasanton, CA (2017)
 Q-Chem 5.0.2 for Intel X86 EM64T Linux

User input:
--------------------------------------------------------------
$molecule
0 2
C        0.1864202585    0.2945987051    1.0571418259
C        1.3300606716   -2.0785041351   -1.4532907658
C        1.2617763854   -3.2783805536   -1.5770823014
C       -1.3683980243    1.8459128665    0.6099324789
C       -0.3196927648    1.7616250548   -0.4075281709
N        0.5900797722    0.8143919217   -0.1232817559
H        0.7647572417   -0.4877024206    1.5413587446
H        1.3762090790   -1.0159146795   -1.3093507042
H        1.1980929201   -4.3418641365   -1.6664990757
H       -2.2085556319    2.5272159757    0.6101895783
H       -0.2128854715    2.3807433360   -1.2973167478
C       -1.0367918697    0.9144144549    1.5500156612
H       -1.5610725662    0.6634636106    2.4657112329
$end

$rem
method                b3lyp
basis                 6-31g(d)
unrestricted          true
symmetry              off
sym_ignore            true
incdft                false
incfock               0
scf_convergence       8
thresh                14
jobtype               opt
scf_guess             read
scf_algorithm         diis
max_scf_cycles        100
geom_opt_tol_gradient 600
geom_opt_tol_displacement 2400
geom_opt_tol_energy   200
geom_opt_max_cycles   100
$end

--------------------------------------------------------------

    2    -286.8417987779      1.80E-09 Convergence criterion met
 Total energy in the final basis set = -286.84179878
   15    -286.8420421431      4.44E-09 Convergence criterion met
 Total energy in the final basis set = -286.84204214
   14    -286.8421977493      5.50E-09 Convergence criterion met
 Total energy in the final basis set = -286.84219775
   15    -286.8423749798      6.29E-09 Convergence criterion met
 Total energy in the final basis set = -286.84237498
   16    -286.8426817248      2.83E-09 Convergence criterion met
 Total energy in the final basis set = -286.84268172
   16    -286.8429856564      2.88E-09 Convergence criterion met
 Total energy in the final basis set = -286.84298566
   16    -286.8432247352      1.97E-09 Convergence criterion met
 Total energy in the final basis set = -286.84322474
   16    -286.8433739825      2.25E-09 Convergence criterion met
   13    -286.8437562219      7.83E-09 Convergence criterion met
 Total energy in the final basis set = -286.84375622
   13    -286.8437627762      3.71E-09 Convergence criterion met
 Total energy in the final basis set = -286.84376278
   13    -286.8437704842      8.26E-09 Convergence criterion met
 Total energy in the final basis set = -286.84377048
   13    -286.8437754040      5.65E-09 Convergence criterion met
 Total energy in the final basis set = -286.84377540
   13    -286.8437791893      6.95E-09 Convergence criterion met
 Total energy in the final basis set = -286.84377919
   12    -286.8437821882      6.89E-09 Convergence criterion met
 Total energy in the final basis set = -286.84378219

             Standard Nuclear Orientation (Angstroms)
    I     Atom           X                Y                Z
 ----------------------------------------------------------------
    1      C      -0.3751892752     0.1958846191     1.3951441653
    2      C       1.3314338993    -2.3358835892    -1.5439536525
    3      C       1.8557276220    -3.2509047317    -2.1306785309
    4      C      -1.0816825226     2.1830946974     0.6307500140
    5      C      -0.4906688192     1.3386905056    -0.4002602231
    6      N      -0.0741356912     0.1516737776     0.0828399535
    7      H      -0.1480273316    -0.6421547289     2.0460851571
    8      H       0.8686602955    -1.5184122556    -1.0164755292
    9      H       2.3159637615    -4.0598658417    -2.6517913694
   10      H      -1.4840609427     3.1773090284     0.4859776047
   11      H      -0.3724112410     1.5846037712    -1.4506628879
   12      C      -1.0076997153     1.4522523392     1.7794415466
   13      H      -1.3379100395     1.7237124085     2.7735837519
 ----------------------------------------------------------------

   11    -286.8437832977      9.57E-09 Convergence criterion met
 Total energy in the final basis set = -286.84378330
 Final energy is   -286.843783297656
 **  OPTIMIZATION CONVERGED  **

                    Orbital Energies (a.u.)
 --------------------------------------------------------------

 Alpha MOs
 -- Occupied --
-14.332 -10.253 -10.253 -10.211 -10.210 -10.164 -10.160  -0.972
 -0.781  -0.735  -0.716  -0.582  -0.576  -0.539  -0.529  -0.462
 -0.429  -0.423  -0.416  -0.403  -0.286  -0.264  -0.257  -0.256
 -0.253

 Beta MOs
 -- Occupied --
-14.334 -10.246 -10.245 -10.210 -10.209 -10.164 -10.160  -0.965
 -0.778  -0.716  -0.714  -0.576  -0.565  -0.539  -0.527  -0.462
 -0.426  -0.414  -0.397  -0.392  -0.287  -0.261  -0.257  -0.256

          Ground-State Mulliken Net Atomic Charges

     Atom                 Charge (a.u.)    Spin (a.u.)
  --------------------------------------------------------
      1 C                     0.072089       0.533341
      2 C                    -0.102439      -0.000164
      3 C                    -0.353174      -0.000083
      4 C                    -0.155560       0.080238
      5 C                     0.071950       0.534564
      6 N                    -0.413255      -0.167730
      7 H                     0.163721      -0.026176
      8 H                     0.230379       0.001456
      9 H                     0.173123       0.000018
     10 H                     0.152613      -0.005817
     11 H                     0.163617      -0.026219
     12 C                    -0.155661       0.082472
     13 H                     0.152596      -0.005898
  --------------------------------------------------------
  Sum of atomic charges =     0.000000

                    Cartesian Multipole Moments
 -----------------------------------------------------------------
    Charge (ESU x 10^10)
                 0.0000
    Dipole Moment (Debye)
         X      -1.3773      Y       2.3923      Z       1.5958
       Tot       3.1885
    Quadrupole Moments (Debye-Ang)
        XX     -42.0070     XY      -2.9016     YY     -36.6350
        XZ      -1.3864     YZ      -0.4954     ZZ     -36.0134

 Total job time:  929.50s(wall), 1353.18s(cpu)
        *  Thank you very much for using Q-Chem.  Have a nice day.  *
