 Q-Chem 5.0, Q-Chem, Inc., Pleasanton, CA (2017)
 Q-Chem 5.0.2 for Intel X86 EM64T Linux

User input:
--------------------------------------------------------------
$molecule
0 2
C        1.5261120191    0.2823998020    0.6697659773
C        1.0972289682   -1.0098286500    0.4324461205
C       -0.1575940425   -1.4433720349   -0.1271523590
C       -1.2393358011    0.7884342166   -0.5032724649
C       -0.2744246816    1.6673626431   -0.0480740357
N        0.9612499246    1.4976022847    0.4779004187
H        2.5255510377    0.3608900613    1.1033706514
H        1.7990871818   -1.7951192913    0.7028276008
H       -0.2857686699   -2.5193594907   -0.2262905290
H       -2.1516602502    1.2454761228   -0.8790338708
H       -0.5457249603    2.7229459673   -0.1204472999
C       -1.1866370566   -0.6506783505   -0.5403412485
H       -2.0680836691   -1.1467532807   -0.9416989612
$end

$rem
method                b3lyp
basis                 6-31g(d)
unrestricted          true
symmetry              off
sym_ignore            true
incdft                false
incfock               0
scf_convergence       8
thresh                14
jobtype               opt
scf_guess             read
scf_algorithm         diis
max_scf_cycles        100
geom_opt_tol_gradient 600
geom_opt_tol_displacement 2400
geom_opt_tol_energy   200
geom_opt_max_cycles   100
$end

--------------------------------------------------------------

             Standard Nuclear Orientation (Angstroms)
    I     Atom           X                Y                Z
 ----------------------------------------------------------------
    1      C       1.5261120191     0.2823998020     0.6697659773
    2      C       1.0972289682    -1.0098286500     0.4324461205
    3      C      -0.1575940425    -1.4433720349    -0.1271523590
    4      C      -1.2393358011     0.7884342166    -0.5032724649
    5      C      -0.2744246816     1.6673626431    -0.0480740357
    6      N       0.9612499246     1.4976022847     0.4779004187
    7      H       2.5255510377     0.3608900613     1.1033706514
    8      H       1.7990871818    -1.7951192913     0.7028276008
    9      H      -0.2857686699    -2.5193594907    -0.2262905290
   10      H      -2.1516602502     1.2454761228    -0.8790338708
   11      H      -0.5457249603     2.7229459673    -0.1204472999
   12      C      -1.1866370566    -0.6506783505    -0.5403412485
   13      H      -2.0680836691    -1.1467532807    -0.9416989612
 ----------------------------------------------------------------

    2    -286.9243386648      1.01E-09 Convergence criterion met
 Total energy in the final basis set = -286.92433866
 Final energy is   -286.924338664784
 **  OPTIMIZATION CONVERGED  **

                    Orbital Energies (a.u.)
 --------------------------------------------------------------

 Alpha MOs
 -- Occupied --
-14.322 -10.232 -10.232 -10.212 -10.211 -10.201 -10.200  -0.922
 -0.818  -0.784  -0.693  -0.667  -0.551  -0.537  -0.518  -0.449
 -0.439  -0.414  -0.394  -0.386  -0.349  -0.322  -0.299  -0.251
 -0.162

 Beta MOs
 -- Occupied --
-14.314 -10.233 -10.233 -10.210 -10.210 -10.196 -10.196  -0.911
 -0.809  -0.777  -0.681  -0.665  -0.546  -0.535  -0.514  -0.447
 -0.438  -0.411  -0.383  -0.373  -0.348  -0.295  -0.276  -0.241

          Ground-State Mulliken Net Atomic Charges

     Atom                 Charge (a.u.)    Spin (a.u.)
  --------------------------------------------------------
      1 C                     0.035595      -0.112271
      2 C                    -0.131402       0.346413
      3 C                    -0.111307       0.094422
      4 C                    -0.131563       0.347258
      5 C                     0.035520      -0.112863
      6 N                    -0.423394       0.387048
      7 H                     0.142588       0.003384
      8 H                     0.134317      -0.018307
      9 H                     0.141968      -0.006668
     10 H                     0.134373      -0.018347
     11 H                     0.142624       0.003414
     12 C                    -0.111255       0.093124
     13 H                     0.141935      -0.006606
  --------------------------------------------------------
  Sum of atomic charges =    -0.000000

                    Cartesian Multipole Moments
 -----------------------------------------------------------------
    Charge (ESU x 10^10)
                -0.0000
    Dipole Moment (Debye)
         X      -1.1712      Y      -1.8235      Z      -0.5822
       Tot       2.2441
    Quadrupole Moments (Debye-Ang)
        XX     -37.9047     XY      -3.5623     YY     -39.6286
        XZ       2.2058     YZ      -1.3854     ZZ     -42.4670

 Total job time:  4.51s(wall), 13.98s(cpu)
        *  Thank you very much for using Q-Chem.  Have a nice day.  *
