 Q-Chem 5.0, Q-Chem, Inc., Pleasanton, CA (2017)
 Q-Chem 5.0.2 for Intel X86 EM64T Linux

User input:
--------------------------------------------------------------
$molecule
0 2
C        1.5415221120    0.4811609243   -0.1516428458
C        0.7757010328   -0.8138899312   -0.0199200762
C       -0.3931485247   -0.5881292990   -0.9245051420
C       -1.0537328198    0.5590798266    0.8178551345
C       -0.5913378995    0.9110773054   -0.5923554280
N        0.7996500782    1.4661576944   -0.5016370191
H        2.5979180092    0.6041083537    0.0775732442
H        1.2968699087   -1.7679853500   -0.0090710642
H       -0.9357738055   -1.2673827131   -1.5658130234
H       -1.7871214331    1.0323573591    1.4543089084
H       -1.2412678854    1.5292213364   -1.2088125347
C       -0.4049654533   -0.6772187833    0.9488108791
H       -0.6256758852   -1.4707377116    1.6577385029
$end

$rem
method                b3lyp
basis                 6-31+g(d,p)
unrestricted          true
symmetry              off
sym_ignore            true
incdft                false
incfock               0
scf_convergence       8
thresh                14
jobtype               rpath
scf_guess             core
scf_guess_mix         5
scf_algorithm         diis
max_scf_cycles        100
rpath_direction       1
rpath_tol_displacement 1000
rpath_max_cycles      50
geom_opt_max_cycles   300
geom_opt_hessian      read
$end

--------------------------------------------------------------

   24    -286.8438515907      5.89E-09 Convergence criterion met
 Total energy in the final basis set = -286.84385159
   23    -286.8457335552      7.28E-09 Convergence criterion met
 Total energy in the final basis set = -286.84573356
   23    -286.8456998546      6.72E-09 Convergence criterion met
 Total energy in the final basis set = -286.84569985
   23    -286.8457375986      7.07E-09 Convergence criterion met
 Total energy in the final basis set = -286.84573760
   23    -286.8496851610      9.40E-09 Convergence criterion met
 Total energy in the final basis set = -286.84968516
   23    -286.8495604094      8.99E-09 Convergence criterion met
 Total energy in the final basis set = -286.84956041
   23    -286.8496956890      9.97E-09 Convergence criterion met
 Total energy in the final basis set = -286.84969569
   23    -286.8533784031      7.42E-09 Convergence criterion met
 Total energy in the final basis set = -286.87333407
   21    -286.8734839482      5.69E-09 Convergence criterion met
 Total energy in the final basis set = -286.87348395
   21    -286.8732683273      5.87E-09 Convergence criterion met
 Total energy in the final basis set = -286.87326833
   21    -286.8734927915      5.88E-09 Convergence criterion met
 Total energy in the final basis set = -286.87349279
   22    -286.8676660972      4.14E-09 Convergence criterion met
 Total energy in the final basis set = -286.86766610
   21    -286.8734941103      5.73E-09 Convergence criterion met
 Total energy in the final basis set = -286.87349411
   21    -286.8734939320      5.92E-09 Convergence criterion met
 Total energy in the final basis set = -286.87349393
   21    -286.8734943538      5.82E-09 Convergence criterion met
 Total energy in the final basis set = -286.87349435

                    Orbital Energies (a.u.)
 --------------------------------------------------------------

 Alpha MOs
 -- Occupied --
-14.337 -10.235 -10.231 -10.221 -10.216 -10.213 -10.209  -0.965
 -0.833  -0.737  -0.715  -0.589  -0.583  -0.539  -0.520  -0.481
 -0.429  -0.420  -0.391  -0.383  -0.358  -0.305  -0.283  -0.271
 -0.206

 Beta MOs
 -- Occupied --
-14.336 -10.235 -10.231 -10.221 -10.212 -10.208 -10.202  -0.961
 -0.827  -0.735  -0.700  -0.587  -0.571  -0.536  -0.517  -0.472
 -0.425  -0.416  -0.389  -0.379  -0.352  -0.298  -0.273  -0.268

          Ground-State Mulliken Net Atomic Charges

     Atom                 Charge (a.u.)    Spin (a.u.)
  --------------------------------------------------------
      1 C                    -0.092231      -0.030831
      2 C                     0.008680      -0.061082
      3 C                    -0.271266       1.033956
      4 C                    -0.147380       0.047867
      5 C                     0.024645      -0.089634
      6 N                    -0.202757       0.024817
      7 H                     0.137344      -0.000119
      8 H                     0.124679       0.003491
      9 H                     0.138980      -0.026003
     10 H                     0.138907       0.000629
     11 H                     0.129345       0.003583
     12 C                    -0.127586       0.093144
     13 H                     0.138641       0.000182
  --------------------------------------------------------
  Sum of atomic charges =     0.000000

                    Cartesian Multipole Moments
 -----------------------------------------------------------------
    Charge (ESU x 10^10)
                 0.0000
    Dipole Moment (Debye)
         X      -0.7280      Y      -2.2428      Z       1.0833
       Tot       2.5950
    Quadrupole Moments (Debye-Ang)
        XX     -38.2024     XY      -4.3021     YY     -44.9912
        XZ       1.4402     YZ       0.1889     ZZ     -42.2953

             Standard Nuclear Orientation (Angstroms)
    I     Atom           X                Y                Z
 ----------------------------------------------------------------
    1      C       1.5415221120     0.4811609243    -0.1516428458
    2      C       0.7757010328    -0.8138899312    -0.0199200762
    3      C      -0.3931485247    -0.5881292990    -0.9245051420
    4      C      -1.0537328198     0.5590798266     0.8178551345
    5      C      -0.5913378995     0.9110773054    -0.5923554280
    6      N       0.7996500782     1.4661576944    -0.5016370191
    7      H       2.5979180092     0.6041083537     0.0775732442
    8      H       1.2968699087    -1.7679853500    -0.0090710642
    9      H      -0.9357738055    -1.2673827131    -1.5658130234
   10      H      -1.7871214331     1.0323573591     1.4543089084
   11      H      -1.2412678854     1.5292213364    -1.2088125347
   12      C      -0.4049654533    -0.6772187833     0.9488108791
   13      H      -0.6256758852    -1.4707377116     1.6577385029
 ----------------------------------------------------------------

 Total job time:  9748.22s(wall), 32089.65s(cpu)
        *  Thank you very much for using Q-Chem.  Have a nice day.  *
