 Q-Chem 5.0, Q-Chem, Inc., Pleasanton, CA (2017)
 Q-Chem 5.0.2 for Intel X86 EM64T Linux

User input:
--------------------------------------------------------------
$molecule
0 2
C        1.5168689536    0.5242223402   -0.1335668539
C        0.8415326074   -0.7932127849   -0.0142302045
C       -0.4452606402   -0.6680305937   -0.7493828780
C       -1.1064418319    0.5935781039    0.8179148133
C       -0.6203954917    0.8945633707   -0.5947820104
N        0.7410428610    1.4824581010   -0.4963198761
H        2.5655501337    0.6963469999    0.1000888853
H        1.3787902587   -1.7345614065    0.0423412576
H       -0.8431953738   -1.3317403152   -1.5099801617
H       -1.4065317548    1.2498629148    1.6288610041
H       -1.2639401505    1.4566370593   -1.2723532311
C       -0.5653792354   -0.7596080337    0.7740319359
H       -0.7926403361   -1.6105157558    1.4073773196
$end

$rem
method                b3lyp
basis                 6-31+g(d,p)
unrestricted          true
symmetry              off
sym_ignore            true
incdft                false
incfock               0
scf_convergence       8
thresh                14
jobtype               sp
scf_guess             core
scf_guess_mix         5
scf_algorithm         diis
max_scf_cycles        100
$end

--------------------------------------------------------------

             Standard Nuclear Orientation (Angstroms)
    I     Atom           X                Y                Z
 ----------------------------------------------------------------
    1      C       1.5168689536     0.5242223402    -0.1335668539
    2      C       0.8415326074    -0.7932127849    -0.0142302045
    3      C      -0.4452606402    -0.6680305937    -0.7493828780
    4      C      -1.1064418319     0.5935781039     0.8179148133
    5      C      -0.6203954917     0.8945633707    -0.5947820104
    6      N       0.7410428610     1.4824581010    -0.4963198761
    7      H       2.5655501337     0.6963469999     0.1000888853
    8      H       1.3787902587    -1.7345614065     0.0423412576
    9      H      -0.8431953738    -1.3317403152    -1.5099801617
   10      H      -1.4065317548     1.2498629148     1.6288610041
   11      H      -1.2639401505     1.4566370593    -1.2723532311
   12      C      -0.5653792354    -0.7596080337     0.7740319359
   13      H      -0.7926403361    -1.6105157558     1.4073773196
 ----------------------------------------------------------------

   23    -286.8601733688      3.12E-09 Convergence criterion met
 Total energy in the final basis set = -286.86017337

                    Orbital Energies (a.u.)
 --------------------------------------------------------------

 Alpha MOs
 -- Occupied --
-14.332 -10.230 -10.230 -10.224 -10.222 -10.219 -10.211  -0.974
 -0.866  -0.757  -0.667  -0.618  -0.581  -0.545  -0.528  -0.473
 -0.441  -0.421  -0.398  -0.371  -0.346  -0.315  -0.274  -0.268
 -0.193

 Beta MOs
 -- Occupied --
-14.331 -10.231 -10.229 -10.225 -10.220 -10.217 -10.198  -0.970
 -0.862  -0.747  -0.657  -0.612  -0.577  -0.542  -0.517  -0.470
 -0.436  -0.416  -0.394  -0.368  -0.334  -0.306  -0.269  -0.266

          Ground-State Mulliken Net Atomic Charges

     Atom                 Charge (a.u.)    Spin (a.u.)
  --------------------------------------------------------
      1 C                    -0.091791       0.042373
      2 C                    -0.097819       0.109792
      3 C                    -0.126752       0.066419
      4 C                    -0.075291       1.021292
      5 C                    -0.074244      -0.124383
      6 N                    -0.210343       0.029851
      7 H                     0.132417       0.004616
      8 H                     0.137862       0.001353
      9 H                     0.133171      -0.000368
     10 H                     0.130615      -0.024384
     11 H                     0.135250       0.018734
     12 C                    -0.133508      -0.149918
     13 H                     0.140431       0.004622
  --------------------------------------------------------
  Sum of atomic charges =    -0.000000

                    Cartesian Multipole Moments
 -----------------------------------------------------------------
    Charge (ESU x 10^10)
                -0.0000
    Dipole Moment (Debye)
         X      -0.3116      Y      -2.6915      Z       0.4083
       Tot       2.7401
    Quadrupole Moments (Debye-Ang)
        XX     -39.9517     XY      -3.0491     YY     -44.2548
        XZ       1.4627     YZ       1.2790     ZZ     -40.8698

 Total job time:  38.88s(wall), 119.01s(cpu)
        *  Thank you very much for using Q-Chem.  Have a nice day.  *
