 Q-Chem 5.0, Q-Chem, Inc., Pleasanton, CA (2017)
 Q-Chem 5.0.2 for Intel X86 EM64T Linux

User input:
--------------------------------------------------------------
$molecule
0 2
C        1.5157495165    0.4444648067   -0.1101777649
C        0.6818932554   -0.8508745617   -0.0533936825
C       -0.2650212575   -0.4767056933   -1.1988886020
C       -1.0970490856    0.4074320596    0.7431289970
C       -0.5846099721    0.8972037938   -0.6217978296
N        0.8116154373    1.4626217597   -0.4264690190
H        2.5783909382    0.5144159589    0.1119430306
H        1.2215802609   -1.7970991539   -0.0737660402
H       -1.0169569158   -1.1599751305   -1.5887408770
H       -1.9024212022    0.8642625520    1.3067584500
H       -1.2249706912    1.5845764800   -1.1708004473
C       -0.3351889730   -0.6459652175    1.0896661741
H       -0.3830113104   -1.2443576537    1.9925376112
$end

$rem
method                b3lyp
basis                 6-31+g(d,p)
unrestricted          true
symmetry              off
sym_ignore            true
incdft                false
incfock               0
scf_convergence       6
thresh                14
jobtype               sp
scf_guess             read
scf_algorithm         diis
max_scf_cycles        100
stability_analysis    true
max_cis_cycles        100
cis_n_roots           4
$end

--------------------------------------------------------------

             Standard Nuclear Orientation (Angstroms)
    I     Atom           X                Y                Z
 ----------------------------------------------------------------
    1      C       1.5157495165     0.4444648067    -0.1101777649
    2      C       0.6818932554    -0.8508745617    -0.0533936825
    3      C      -0.2650212575    -0.4767056933    -1.1988886020
    4      C      -1.0970490856     0.4074320596     0.7431289970
    5      C      -0.5846099721     0.8972037938    -0.6217978296
    6      N       0.8116154373     1.4626217597    -0.4264690190
    7      H       2.5783909382     0.5144159589     0.1119430306
    8      H       1.2215802609    -1.7970991539    -0.0737660402
    9      H      -1.0169569158    -1.1599751305    -1.5887408770
   10      H      -1.9024212022     0.8642625520     1.3067584500
   11      H      -1.2249706912     1.5845764800    -1.1708004473
   12      C      -0.3351889730    -0.6459652175     1.0896661741
   13      H      -0.3830113104    -1.2443576537     1.9925376112
 ----------------------------------------------------------------

    2    -286.8734943539      2.13E-09 Convergence criterion met
 Total energy in the final basis set = -286.87349435

         TDDFT/TDA Excitation Energies
 ---------------------------------------------------

 Excited state   1: excitation energy (eV) =    3.1014
 Total energy for state  1:                  -286.75951980 au
    <S**2>     :  1.1521
    Trans. Mom.:  0.0985 X  -0.0446 Y   0.0446 Z
    Strength   :     0.0010395511
    S(  1) --> V(  1) amplitude =  0.9402 alpha
    D( 23) --> V(  1) amplitude =  0.1772 beta
    D( 24) --> V(  1) amplitude = -0.1561 beta

 Excited state   2: excitation energy (eV) =    4.1383
 Total energy for state  2:                  -286.72141500 au
    <S**2>     :  1.7055
    Trans. Mom.: -0.0020 X  -0.0176 Y  -0.0632 Z
    Strength   :     0.0004370977
    D( 22) --> V(  1) amplitude =  0.2012 alpha
    D( 23) --> V(  2) amplitude =  0.1536 alpha
    D( 24) --> V(  1) amplitude =  0.3014 alpha
    S(  1) --> V(  1) amplitude = -0.1759 alpha
    S(  1) --> V(  2) amplitude =  0.5289 alpha
    S(  1) --> V(  3) amplitude =  0.1883 alpha
    D( 22) --> V(  1) amplitude = -0.1827 beta
    D( 23) --> S(  1) amplitude = -0.2240 beta
    D( 23) --> V(  3) amplitude = -0.2024 beta
    D( 24) --> S(  1) amplitude = -0.4285 beta
    D( 24) --> V(  1) amplitude = -0.3390 beta

 Excited state   3: excitation energy (eV) =    4.2590
 Total energy for state  3:                  -286.71698010 au
    <S**2>     :  1.7070
    Trans. Mom.: -0.0433 X  -0.0316 Y   0.1267 Z
    Strength   :     0.0019743442
    D( 22) --> V(  1) amplitude =  0.1602 alpha
    D( 24) --> V(  1) amplitude = -0.3342 alpha
    S(  1) --> V(  2) amplitude =  0.4659 alpha
    S(  1) --> V(  3) amplitude =  0.1592 alpha
    D( 22) --> V(  1) amplitude = -0.1701 beta
    D( 23) --> S(  1) amplitude =  0.2258 beta
    D( 23) --> V(  1) amplitude =  0.2912 beta
    D( 24) --> S(  1) amplitude =  0.5446 beta
    D( 24) --> V(  3) amplitude =  0.2270 beta

 Excited state   4: excitation energy (eV) =    4.3715
 Total energy for state  4:                  -286.71284405 au
    <S**2>     :  2.2195
    Trans. Mom.: -0.0314 X  -0.0196 Y  -0.2093 Z
    Strength   :     0.0048387801
    D( 22) --> V(  1) amplitude = -0.2062 alpha
    D( 22) --> V(  2) amplitude =  0.1641 alpha
    D( 23) --> V(  1) amplitude =  0.5323 alpha
    S(  1) --> V(  1) amplitude = -0.2085 alpha
    D( 22) --> S(  1) amplitude =  0.1605 beta
    D( 22) --> V(  1) amplitude =  0.2701 beta
    D( 22) --> V(  3) amplitude =  0.1671 beta
    D( 23) --> S(  1) amplitude =  0.3839 beta
    D( 23) --> V(  1) amplitude =  0.4010 beta
    D( 24) --> S(  1) amplitude = -0.2408 beta
    D( 24) --> V(  1) amplitude = -0.2014 beta

 ---------------------------------------------------

                    Orbital Energies (a.u.)
 --------------------------------------------------------------

 Alpha MOs
 -- Occupied --
-14.337 -10.235 -10.231 -10.221 -10.216 -10.213 -10.209  -0.965
 -0.833  -0.737  -0.715  -0.589  -0.583  -0.539  -0.520  -0.481
 -0.429  -0.420  -0.391  -0.383  -0.358  -0.305  -0.283  -0.271
 -0.206

 Beta MOs
 -- Occupied --
-14.336 -10.235 -10.231 -10.221 -10.212 -10.208 -10.202  -0.961
 -0.827  -0.735  -0.700  -0.587  -0.571  -0.536  -0.517  -0.472
 -0.425  -0.416  -0.389  -0.379  -0.352  -0.298  -0.273  -0.268

          Ground-State Mulliken Net Atomic Charges

     Atom                 Charge (a.u.)    Spin (a.u.)
  --------------------------------------------------------
      1 C                    -0.092231      -0.030834
      2 C                     0.008680      -0.061081
      3 C                    -0.271266       1.033956
      4 C                    -0.147380       0.047868
      5 C                     0.024645      -0.089634
      6 N                    -0.202757       0.024819
      7 H                     0.137344      -0.000119
      8 H                     0.124679       0.003491
      9 H                     0.138980      -0.026003
     10 H                     0.138907       0.000629
     11 H                     0.129345       0.003583
     12 C                    -0.127586       0.093144
     13 H                     0.138641       0.000182
  --------------------------------------------------------
  Sum of atomic charges =    -0.000000

                    Cartesian Multipole Moments
 -----------------------------------------------------------------
    Charge (ESU x 10^10)
                 0.0000
    Dipole Moment (Debye)
         X      -0.7280      Y      -2.2428      Z       1.0833
       Tot       2.5950
    Quadrupole Moments (Debye-Ang)
        XX     -38.2048     XY      -4.3060     YY     -44.9920
        XZ       1.4410     YZ       0.1861     ZZ     -42.2924

 Total job time:  227.46s(wall), 209.36s(cpu)
        *  Thank you very much for using Q-Chem.  Have a nice day.  *
