 Q-Chem 5.0, Q-Chem, Inc., Pleasanton, CA (2017)
 Q-Chem 5.0.2 for Intel X86 EM64T Linux

User input:
--------------------------------------------------------------
$molecule
0 2
C        1.3119832026    0.3024639842    0.2418450666
C        0.6067813895   -1.0007324541   -0.1827277502
C       -0.6879962090   -0.4652710104   -0.8442673523
C       -1.0782594737    0.1910344549    0.4506508298
C       -0.5191779217    1.0594042307   -0.6924931429
N        0.8290508102    1.4231658196   -0.4713972156
H        2.3485696173    0.2892655803    0.5603271077
H        1.1221951757   -1.9351789616   -0.3745474573
H       -1.2950975532   -0.9364177124   -1.6091722852
H       -2.0524462796    0.3360300536    0.9040256583
H       -1.1654104444    1.7420801816   -1.2331782202
C        0.2167898071   -0.3445443101    1.1121710373
H        0.3630178796   -0.6612998559    2.1387637239
****
C        1.5755634212    0.4906075893   -0.1795739216
C        0.8445012075   -0.7985087638   -0.0029920015
C       -0.4636994652   -0.6147519313   -0.7007187665
C       -0.9629121364    0.6735012916    0.9110111818
C       -0.5540208079    0.9501993578   -0.5412944589
N        0.8339993481    1.4758685212   -0.5243195295
H        2.6430213796    0.6148883734   -0.0003370018
H        1.3472799680   -1.7608520492    0.0053276835
H       -0.9186696805   -1.2635459085   -1.4436315414
H       -1.9029497367    0.9725376721    1.3606415495
H       -1.2157265555    1.5368358506   -1.1782102551
C       -0.4785850835   -0.7176475485    0.8320866590
H       -0.7478018587   -1.5591324547    1.4620104028
$end

$rem
method                b3lyp
basis                 6-31g(d)
unrestricted          true
symmetry              off
sym_ignore            true
incdft                false
incfock               0
scf_convergence       8
thresh                14
jobtype               fsm
scf_guess             core
scf_guess_mix         5
scf_algorithm         diis
max_scf_cycles        100
fsm_nnode             21
fsm_ngrad             6
fsm_mode              2
fsm_opt_mode          2
$end

--------------------------------------------------------------

   20    -286.8249557164      5.82E-09 Convergence criterion met
 Total energy in the final basis set = -286.82495572
   20    -286.8364694808      9.50E-09 Convergence criterion met
 Total energy in the final basis set = -286.83646948
   21    -286.8231002252      3.33E-09 Convergence criterion met
 Total energy in the final basis set = -286.82310023
   21    -286.8226950160      7.04E-09 Convergence criterion met
 Total energy in the final basis set = -286.82269502
   20    -286.8186738586      5.06E-09 Convergence criterion met
 Total energy in the final basis set = -286.81867386
   21    -286.8226177740      2.46E-09 Convergence criterion met
 Total energy in the final basis set = -286.82261777
   21    -286.8351281078      6.29E-09 Convergence criterion met
 Total energy in the final basis set = -286.83512811
   21    -286.8330097017      4.21E-09 Convergence criterion met
 Total energy in the final basis set = -286.78405442
   25    -286.7828199714      8.63E-09 Convergence criterion met
 Total energy in the final basis set = -286.78281997
   26    -286.7840630054      5.73E-09 Convergence criterion met
 Total energy in the final basis set = -286.78406301
   25    -286.7828208678      8.20E-09 Convergence criterion met
 Total energy in the final basis set = -286.78282087
   26    -286.7840827046      6.19E-09 Convergence criterion met
 Total energy in the final basis set = -286.78408270
   25    -286.7828117751      7.96E-09 Convergence criterion met
 Total energy in the final basis set = -286.78281178
   26    -286.7841160630      6.45E-09 Convergence criterion met
 Total energy in the final basis set = -286.78411606
   25    -286.7827876344      7.91E-09 Convergence criterion met
 Total energy in the final basis set = -286.78278763

                    Orbital Energies (a.u.)
 --------------------------------------------------------------

 Alpha MOs
 -- Occupied --
-14.317 -10.248 -10.223 -10.219 -10.217 -10.216 -10.180  -0.965
 -0.845  -0.751  -0.672  -0.594  -0.585  -0.543  -0.516  -0.462
 -0.430  -0.418  -0.399  -0.370  -0.343  -0.302  -0.268  -0.257
 -0.110

 Beta MOs
 -- Occupied --
-14.316 -10.247 -10.223 -10.217 -10.216 -10.215 -10.169  -0.962
 -0.840  -0.745  -0.661  -0.587  -0.583  -0.541  -0.506  -0.458
 -0.426  -0.415  -0.396  -0.365  -0.334  -0.289  -0.259  -0.244

          Ground-State Mulliken Net Atomic Charges

     Atom                 Charge (a.u.)    Spin (a.u.)
  --------------------------------------------------------
      1 C                     0.098170       0.016791
      2 C                    -0.174494      -0.008965
      3 C                    -0.095653       0.013353
      4 C                    -0.106518       0.789671
      5 C                    -0.088654      -0.018868
      6 N                    -0.337338       0.030423
      7 H                     0.142891       0.006142
      8 H                     0.153451       0.000617
      9 H                     0.171347       0.002362
     10 H                     0.134530      -0.026832
     11 H                     0.149488      -0.000940
     12 C                    -0.204631       0.210495
     13 H                     0.157411      -0.014250
  --------------------------------------------------------
  Sum of atomic charges =     0.000000

                    Cartesian Multipole Moments
 -----------------------------------------------------------------
    Charge (ESU x 10^10)
                 0.0000
    Dipole Moment (Debye)
         X      -0.7093      Y      -3.2896      Z      -0.5252
       Tot       3.4060
    Quadrupole Moments (Debye-Ang)
        XX     -37.9134     XY      -3.0946     YY     -44.2261
        XZ       2.8926     YZ      -0.5418     ZZ     -40.1213

             Standard Nuclear Orientation (Angstroms)
    I     Atom           X                Y                Z
 ----------------------------------------------------------------
    1      C       1.5665938282     0.4363573417    -0.1784117570
    2      C       0.7658214390    -0.8323425733    -0.0959700448
    3      C      -0.5141689661    -0.5238099277    -0.7774836087
    4      C      -1.0187979846     0.6040070646     0.8009124989
    5      C      -0.5385142531     0.9772822943    -0.6013712753
    6      N       0.8663819355     1.4651735378    -0.4897796556
    7      H       2.5723112745     0.5075890493     0.2344216201
    8      H       1.2112940433    -1.8149640501    -0.2024218305
    9      H      -1.1522684720    -1.1202237650    -1.4253333037
   10      H      -2.0787273175     0.6129867002     1.0082718811
   11      H      -1.1741499514     1.6203001106    -1.2052515611
   12      C      -0.2414396102    -0.6454373532     1.0162994894
   13      H      -0.2856985313    -1.2890994174     1.8986470831
 ----------------------------------------------------------------

 Total job time:  1328.01s(wall), 4553.48s(cpu)
        *  Thank you very much for using Q-Chem.  Have a nice day.  *
