 Q-Chem 5.0, Q-Chem, Inc., Pleasanton, CA (2017)
 Q-Chem 5.0.2 for Intel X86 EM64T Linux

User input:
--------------------------------------------------------------
$molecule
0 2
C        1.5760032086    0.4907371161   -0.1800286475
C        0.8451774152   -0.7986862903   -0.0034036254
C       -0.4632148507   -0.6151172297   -0.7009119622
C       -0.9624493212    0.6740916191    0.9121032665
C       -0.5545319747    0.9502471302   -0.5408531976
N        0.8334671192    1.4757489118   -0.5242110084
H        2.6434292726    0.6151226340   -0.0006015000
H        1.3464904271   -1.7618108841    0.0060231859
H       -0.9179475460   -1.2629878096   -1.4447232441
H       -1.9033628835    0.9727973629    1.3602304171
H       -1.2164994495    1.5364855537   -1.1779908331
C       -0.4782360189   -0.7177882781    0.8321180994
H       -0.7483253983   -1.5588398360    1.4622490495
$end

$rem
method                b3lyp
basis                 6-31g(d)
unrestricted          true
symmetry              off
sym_ignore            true
incdft                false
incfock               0
scf_convergence       8
thresh                14
jobtype               opt
scf_guess             core
scf_guess_mix         5
scf_algorithm         diis
max_scf_cycles        100
geom_opt_max_cycles   300
$end

--------------------------------------------------------------

   20    -286.8364672313      9.35E-09 Convergence criterion met
 Total energy in the final basis set = -286.83646723
   16    -286.8364689198      4.66E-09 Convergence criterion met
 Total energy in the final basis set = -286.83646892

             Standard Nuclear Orientation (Angstroms)
    I     Atom           X                Y                Z
 ----------------------------------------------------------------
    1      C       1.5755634212     0.4906075893    -0.1795739216
    2      C       0.8445012075    -0.7985087638    -0.0029920015
    3      C      -0.4636994652    -0.6147519313    -0.7007187665
    4      C      -0.9629121364     0.6735012916     0.9110111818
    5      C      -0.5540208079     0.9501993578    -0.5412944589
    6      N       0.8339993481     1.4758685212    -0.5243195295
    7      H       2.6430213796     0.6148883734    -0.0003370018
    8      H       1.3472799680    -1.7608520492     0.0053276835
    9      H      -0.9186696805    -1.2635459085    -1.4436315414
   10      H      -1.9029497367     0.9725376721     1.3606415495
   11      H      -1.2157265555     1.5368358506    -1.1782102551
   12      C      -0.4785850835    -0.7176475485     0.8320866590
   13      H      -0.7478018587    -1.5591324547     1.4620104028
 ----------------------------------------------------------------

   16    -286.8364695055      4.66E-09 Convergence criterion met
 Total energy in the final basis set = -286.83646951
 Final energy is   -286.836469505507
 **  OPTIMIZATION CONVERGED  **

                    Orbital Energies (a.u.)
 --------------------------------------------------------------

 Alpha MOs
 -- Occupied --
-14.317 -10.220 -10.220 -10.215 -10.212 -10.211 -10.194  -0.964
 -0.858  -0.746  -0.657  -0.608  -0.575  -0.540  -0.512  -0.463
 -0.429  -0.412  -0.388  -0.366  -0.329  -0.315  -0.266  -0.256
 -0.174

 Beta MOs
 -- Occupied --
-14.317 -10.221 -10.220 -10.216 -10.211 -10.210 -10.181  -0.961
 -0.854  -0.737  -0.646  -0.602  -0.571  -0.538  -0.501  -0.461
 -0.425  -0.406  -0.384  -0.362  -0.317  -0.303  -0.263  -0.254

          Ground-State Mulliken Net Atomic Charges

     Atom                 Charge (a.u.)    Spin (a.u.)
  --------------------------------------------------------
      1 C                     0.096134       0.006694
      2 C                    -0.192240       0.036702
      3 C                    -0.106954       0.107725
      4 C                    -0.071500       0.952308
      5 C                    -0.099508      -0.043391
      6 N                    -0.337342       0.012622
      7 H                     0.143816       0.003969
      8 H                     0.148640       0.001436
      9 H                     0.149520       0.008575
     10 H                     0.139478      -0.039478
     11 H                     0.141867       0.005431
     12 C                    -0.161496      -0.052958
     13 H                     0.149584       0.000366
  --------------------------------------------------------
  Sum of atomic charges =     0.000000

                    Cartesian Multipole Moments
 -----------------------------------------------------------------
    Charge (ESU x 10^10)
                -0.0000
    Dipole Moment (Debye)
         X      -0.7988      Y      -2.7191      Z       0.0627
       Tot       2.8347
    Quadrupole Moments (Debye-Ang)
        XX     -37.1054     XY      -2.9802     YY     -43.2079
        XZ       0.8794     YZ       0.3806     ZZ     -40.9577

 Total job time:  43.80s(wall), 151.94s(cpu)
        *  Thank you very much for using Q-Chem.  Have a nice day.  *
