 Q-Chem 5.0, Q-Chem, Inc., Pleasanton, CA (2017)
 Q-Chem 5.0.2 for Intel X86 EM64T Linux

User input:
--------------------------------------------------------------
$molecule
0 2
C        1.3118553965    0.3025645483    0.2420680501
C        0.6068016140   -1.0007437408   -0.1830377253
C       -0.6883432701   -0.4654887350   -0.8439833543
C       -1.0780816294    0.1914248105    0.4506992150
C       -0.5189778790    1.0592796455   -0.6927874810
N        0.8291126319    1.4230372465   -0.4714120611
H        2.3483758206    0.2894064774    0.5607696643
H        1.1233254710   -1.9344691093   -0.3753888304
H       -1.2958121827   -0.9367535784   -1.6085309573
H       -2.0520569287    0.3366788924    0.9044507954
H       -1.1651298397    1.7418607690   -1.2337022453
C        0.2167204484   -0.3451412793    1.1120381956
H        0.3622103476   -0.6616559464    2.1388167342
$end

$rem
method                b3lyp
basis                 6-31g(d)
unrestricted          true
symmetry              off
sym_ignore            true
incdft                false
incfock               0
scf_convergence       8
thresh                14
jobtype               opt
scf_guess             core
scf_guess_mix         5
scf_algorithm         diis
max_scf_cycles        100
geom_opt_max_cycles   300
$end

--------------------------------------------------------------

   21    -286.8249551859      3.54E-09 Convergence criterion met
 Total energy in the final basis set = -286.82495519

             Standard Nuclear Orientation (Angstroms)
    I     Atom           X                Y                Z
 ----------------------------------------------------------------
    1      C       1.3119832026     0.3024639842     0.2418450666
    2      C       0.6067813895    -1.0007324541    -0.1827277502
    3      C      -0.6879962090    -0.4652710104    -0.8442673523
    4      C      -1.0782594737     0.1910344549     0.4506508298
    5      C      -0.5191779217     1.0594042307    -0.6924931429
    6      N       0.8290508102     1.4231658196    -0.4713972156
    7      H       2.3485696173     0.2892655803     0.5603271077
    8      H       1.1221951757    -1.9351789616    -0.3745474573
    9      H      -1.2950975532    -0.9364177124    -1.6091722852
   10      H      -2.0524462796     0.3360300536     0.9040256583
   11      H      -1.1654104444     1.7420801816    -1.2331782202
   12      C       0.2167898071    -0.3445443101     1.1121710373
   13      H       0.3630178796    -0.6612998559     2.1387637239
 ----------------------------------------------------------------

   14    -286.8249557164      2.70E-09 Convergence criterion met
 Total energy in the final basis set = -286.82495572
 Final energy is   -286.824955716412
 **  OPTIMIZATION CONVERGED  **

                    Orbital Energies (a.u.)
 --------------------------------------------------------------

 Alpha MOs
 -- Occupied --
-14.335 -10.215 -10.215 -10.207 -10.207 -10.207 -10.206  -0.986
 -0.837  -0.793  -0.649  -0.588  -0.574  -0.542  -0.533  -0.455
 -0.427  -0.415  -0.395  -0.384  -0.337  -0.275  -0.274  -0.248
 -0.212

 Beta MOs
 -- Occupied --
-14.319 -10.217 -10.216 -10.205 -10.205 -10.205 -10.205  -0.976
 -0.812  -0.789  -0.644  -0.585  -0.568  -0.537  -0.529  -0.453
 -0.423  -0.392  -0.390  -0.378  -0.322  -0.269  -0.257  -0.244

          Ground-State Mulliken Net Atomic Charges

     Atom                 Charge (a.u.)    Spin (a.u.)
  --------------------------------------------------------
      1 C                    -0.044699      -0.080431
      2 C                    -0.124693       0.089485
      3 C                    -0.124936       0.089557
      4 C                    -0.124617       0.088874
      5 C                    -0.044896      -0.080278
      6 N                    -0.285847       0.811145
      7 H                     0.149304       0.001046
      8 H                     0.144001      -0.002500
      9 H                     0.144002      -0.002518
     10 H                     0.143991      -0.002467
     11 H                     0.149343       0.001045
     12 C                    -0.124888       0.089533
     13 H                     0.143935      -0.002490
  --------------------------------------------------------
  Sum of atomic charges =     0.000000

                    Cartesian Multipole Moments
 -----------------------------------------------------------------
    Charge (ESU x 10^10)
                -0.0000
    Dipole Moment (Debye)
         X      -1.1245      Y      -1.9293      Z       0.6400
       Tot       2.3230
    Quadrupole Moments (Debye-Ang)
        XX     -37.9741     XY      -3.8519     YY     -43.4382
        XZ       2.4113     YZ       0.8314     ZZ     -39.2036

 Total job time:  30.23s(wall), 104.59s(cpu)
        *  Thank you very much for using Q-Chem.  Have a nice day.  *
