 Q-Chem 5.0, Q-Chem, Inc., Pleasanton, CA (2017)
 Q-Chem 5.0.2 for Intel X86 EM64T Linux

User input:
--------------------------------------------------------------
$molecule
0 2
C        1.5665938282    0.4363573417   -0.1784117570
C        0.7658214390   -0.8323425733   -0.0959700448
C       -0.5141689661   -0.5238099277   -0.7774836087
C       -1.0187979846    0.6040070646    0.8009124989
C       -0.5385142531    0.9772822943   -0.6013712753
N        0.8663819355    1.4651735378   -0.4897796556
H        2.5723112745    0.5075890493    0.2344216201
H        1.2112940433   -1.8149640501   -0.2024218305
H       -1.1522684720   -1.1202237650   -1.4253333037
H       -2.0787273175    0.6129867002    1.0082718811
H       -1.1741499514    1.6203001106   -1.2052515611
C       -0.2414396102   -0.6454373532    1.0162994894
H       -0.2856985313   -1.2890994174    1.8986470831
$end

$rem
method                b3lyp
basis                 6-31g(d)
unrestricted          true
symmetry              off
sym_ignore            true
incdft                false
incfock               0
scf_convergence       8
thresh                14
jobtype               freq
scf_guess             read
scf_algorithm         diis
max_scf_cycles        100
$end

--------------------------------------------------------------

             Standard Nuclear Orientation (Angstroms)
    I     Atom           X                Y                Z
 ----------------------------------------------------------------
    1      C       1.5665938282     0.4363573417    -0.1784117570
    2      C       0.7658214390    -0.8323425733    -0.0959700448
    3      C      -0.5141689661    -0.5238099277    -0.7774836087
    4      C      -1.0187979846     0.6040070646     0.8009124989
    5      C      -0.5385142531     0.9772822943    -0.6013712753
    6      N       0.8663819355     1.4651735378    -0.4897796556
    7      H       2.5723112745     0.5075890493     0.2344216201
    8      H       1.2112940433    -1.8149640501    -0.2024218305
    9      H      -1.1522684720    -1.1202237650    -1.4253333037
   10      H      -2.0787273175     0.6129867002     1.0082718811
   11      H      -1.1741499514     1.6203001106    -1.2052515611
   12      C      -0.2414396102    -0.6454373532     1.0162994894
   13      H      -0.2856985313    -1.2890994174     1.8986470831
 ----------------------------------------------------------------

    2    -286.7941795349      2.91E-09 Convergence criterion met
 Total energy in the final basis set = -286.79417953

                    Orbital Energies (a.u.)
 --------------------------------------------------------------

 Alpha MOs
 -- Occupied --
-14.320 -10.236 -10.223 -10.220 -10.219 -10.218 -10.180  -0.964
 -0.846  -0.749  -0.671  -0.596  -0.584  -0.543  -0.514  -0.464
 -0.429  -0.415  -0.398  -0.370  -0.340  -0.302  -0.272  -0.259
 -0.118

 Beta MOs
 -- Occupied --
-14.320 -10.233 -10.222 -10.220 -10.219 -10.219 -10.168  -0.961
 -0.842  -0.743  -0.661  -0.590  -0.580  -0.541  -0.504  -0.460
 -0.425  -0.411  -0.396  -0.366  -0.332  -0.288  -0.261  -0.251

          Ground-State Mulliken Net Atomic Charges

     Atom                 Charge (a.u.)    Spin (a.u.)
  --------------------------------------------------------
      1 C                     0.097777       0.010579
      2 C                    -0.177793      -0.009982
      3 C                    -0.109148       0.164068
      4 C                    -0.098253       0.834440
      5 C                    -0.092089      -0.025403
      6 N                    -0.332859       0.015327
      7 H                     0.144710       0.004660
      8 H                     0.153809      -0.000080
      9 H                     0.164863      -0.001099
     10 H                     0.132508      -0.029141
     11 H                     0.147302      -0.000347
     12 C                    -0.190304       0.042338
     13 H                     0.159478      -0.005358
  --------------------------------------------------------
  Sum of atomic charges =    -0.000000

                    Cartesian Multipole Moments
 -----------------------------------------------------------------
    Charge (ESU x 10^10)
                 0.0000
    Dipole Moment (Debye)
         X      -0.5605      Y      -3.2614      Z      -0.3782
       Tot       3.3307
    Quadrupole Moments (Debye-Ang)
        XX     -37.7431     XY      -2.9455     YY     -44.0697
        XZ       2.6405     YZ      -0.7857     ZZ     -40.4040

 Frequency:      -497.78                -122.21                 405.48
 Force Cnst:      0.3423                 0.0317                 0.2565
 Red. Mass:       2.3448                 3.5984                 2.6477
 IR Intens:       84.710                  9.263                 11.757
 Frequency:       483.63                 653.76                 679.83
 Force Cnst:      0.7384                 0.4517                 0.4313
 Red. Mass:       5.3579                 1.7939                 1.5838
 IR Intens:        0.658                 21.587                 14.800
 Frequency:       712.99                 765.60                 820.18
 Force Cnst:      1.0341                 0.9215                 0.6596
 Red. Mass:       3.4525                 2.6683                 1.6643
 IR Intens:       17.839                  9.170                 14.994
 Frequency:       845.75                 870.57                 894.38
 Force Cnst:      1.1912                 1.5048                 0.8881
 Red. Mass:       2.8265                 3.3700                 1.8844
 IR Intens:        3.355                  3.304                 27.189
 Frequency:       911.60                 934.37                 954.46
 Force Cnst:      1.0057                 1.6564                 0.8945
 Red. Mass:       2.0540                 3.2202                 1.6665
 IR Intens:       12.040                  2.398                  7.905
 Frequency:       998.89                1028.57                1041.63
 Force Cnst:      1.0120                 1.7913                 0.8156
 Red. Mass:       1.7214                 2.8738                 1.2758
 IR Intens:        5.699                  6.918                  1.845
 Frequency:      1105.10                1169.69                1214.81
 Force Cnst:      1.4051                 1.5955                 1.2158
 Red. Mass:       1.9528                 1.9793                 1.3983
 IR Intens:        0.555                  1.069                  0.537
 Frequency:      1254.48                1280.85                1319.74
 Force Cnst:      1.5657                 1.1798                 1.6106
 Red. Mass:       1.6887                 1.2206                 1.5695
 IR Intens:        2.434                  0.362                  5.258
 Frequency:      1345.26                1353.28                1649.29
 Force Cnst:      2.5174                 1.8966                12.1549
 Red. Mass:       2.3610                 1.7578                 7.5841
 IR Intens:       13.721                  4.625                 24.273
 Frequency:      3145.60                3175.01                3190.35
 Force Cnst:      6.3486                 6.4885                 6.5346
 Red. Mass:       1.0890                 1.0925                 1.0897
 IR Intens:        2.260                 30.450                 14.182
 Frequency:      3203.40                3222.47                3248.22
 Force Cnst:      6.6101                 6.6964                 6.7726
 Red. Mass:       1.0933                 1.0945                 1.0895
 IR Intens:        6.233                 10.682                 22.912

 STANDARD THERMODYNAMIC QUANTITIES AT   298.15 K  AND     1.00 ATM

   This Molecule has  2 Imaginary Frequencies
   Zero point vibrational energy:       62.729 kcal/mol

   Atom    1 Element C  Has Mass   12.00000
   Atom    2 Element C  Has Mass   12.00000
   Atom    3 Element C  Has Mass   12.00000
   Atom    4 Element C  Has Mass   12.00000
   Atom    5 Element C  Has Mass   12.00000
   Atom    6 Element N  Has Mass   14.00307
   Atom    7 Element H  Has Mass    1.00783
   Atom    8 Element H  Has Mass    1.00783
   Atom    9 Element H  Has Mass    1.00783
   Atom   10 Element H  Has Mass    1.00783
   Atom   11 Element H  Has Mass    1.00783
   Atom   12 Element C  Has Mass   12.00000
   Atom   13 Element H  Has Mass    1.00783
   Molecular Mass:    92.050050 amu
   Principal axes and moments of inertia in amu*Bohr^2:
                             1           2           3
    Eigenvalues --      373.89418   444.83333   571.07115
          X               0.78791    -0.57632     0.21694
          Y               0.48696     0.79875     0.35335
          Z              -0.37692    -0.17277     0.90999
   Rotational Symmetry Number is   1
   The Molecule is an Asymmetric Top
   Translational Enthalpy:        0.889 kcal/mol
   Rotational Enthalpy:           0.889 kcal/mol
   Vibrational Enthalpy:         63.736 kcal/mol
   gas constant (RT):             0.592 kcal/mol
   Translational Entropy:        39.471  cal/mol.K
   Rotational Entropy:           26.054  cal/mol.K
   Vibrational Entropy:           4.441  cal/mol.K

   Total Enthalpy:               66.106 kcal/mol
   Total Entropy:                69.967  cal/mol.K

 Total job time:  263.22s(wall), 261.15s(cpu)
        *  Thank you very much for using Q-Chem.  Have a nice day.  *
