 Q-Chem 5.0, Q-Chem, Inc., Pleasanton, CA (2017)
 Q-Chem 5.0.2 for Intel X86 EM64T Linux

User input:
--------------------------------------------------------------
$molecule
0 2
C        1.5371975125    0.4849760156   -0.1473826323
C        0.7765565379   -0.8139159279   -0.0211928841
C       -0.3851787580   -0.5876266771   -0.9345417515
C       -1.0615347245    0.5517249280    0.8091120967
C       -0.5917514514    0.9076941355   -0.5968027692
N        0.7969573414    1.4696070609   -0.4959373572
H        2.5927641320    0.6097071519    0.0889906793
H        1.3005874190   -1.7671034501   -0.0093837896
H       -0.9489029151   -1.2722554163   -1.5510746172
H       -1.7621832170    1.0453255935    1.4677938260
H       -1.2397514975    1.5254240083   -1.2177701301
C       -0.4085492315   -0.6805143467    0.9405927094
H       -0.6275737134   -1.4752240640    1.6501261555
$end

$rem
method                b3lyp
basis                 6-31+g(d,p)
unrestricted          true
symmetry              off
sym_ignore            true
incdft                false
incfock               0
scf_convergence       8
thresh                14
jobtype               sp
scf_guess             core
scf_guess_mix         5
scf_algorithm         diis
max_scf_cycles        100
$end

--------------------------------------------------------------

             Standard Nuclear Orientation (Angstroms)
    I     Atom           X                Y                Z
 ----------------------------------------------------------------
    1      C       1.5371975125     0.4849760156    -0.1473826323
    2      C       0.7765565379    -0.8139159279    -0.0211928841
    3      C      -0.3851787580    -0.5876266771    -0.9345417515
    4      C      -1.0615347245     0.5517249280     0.8091120967
    5      C      -0.5917514514     0.9076941355    -0.5968027692
    6      N       0.7969573414     1.4696070609    -0.4959373572
    7      H       2.5927641320     0.6097071519     0.0889906793
    8      H       1.3005874190    -1.7671034501    -0.0093837896
    9      H      -0.9489029151    -1.2722554163    -1.5510746172
   10      H      -1.7621832170     1.0453255935     1.4677938260
   11      H      -1.2397514975     1.5254240083    -1.2177701301
   12      C      -0.4085492315    -0.6805143467     0.9405927094
   13      H      -0.6275737134    -1.4752240640     1.6501261555
 ----------------------------------------------------------------

   24    -286.8438140450      5.30E-09 Convergence criterion met
 Total energy in the final basis set = -286.84381404

                    Orbital Energies (a.u.)
 --------------------------------------------------------------

 Alpha MOs
 -- Occupied --
-14.334 -10.233 -10.231 -10.229 -10.226 -10.222 -10.199  -0.969
 -0.851  -0.750  -0.690  -0.601  -0.587  -0.546  -0.524  -0.475
 -0.435  -0.419  -0.409  -0.386  -0.352  -0.307  -0.286  -0.266
 -0.153

 Beta MOs
 -- Occupied --
-14.334 -10.236 -10.232 -10.228 -10.225 -10.213 -10.190  -0.966
 -0.845  -0.743  -0.680  -0.596  -0.578  -0.543  -0.516  -0.469
 -0.431  -0.414  -0.407  -0.384  -0.346  -0.292  -0.276  -0.262

          Ground-State Mulliken Net Atomic Charges

     Atom                 Charge (a.u.)    Spin (a.u.)
  --------------------------------------------------------
      1 C                    -0.063955       0.042136
      2 C                    -0.021018      -0.029483
      3 C                    -0.277144       0.642517
      4 C                    -0.138201       0.735842
      5 C                     0.018619      -0.124632
      6 N                    -0.206645      -0.002563
      7 H                     0.134768       0.001321
      8 H                     0.131554       0.003935
      9 H                     0.148586      -0.028989
     10 H                     0.138490      -0.028585
     11 H                     0.130553       0.008846
     12 C                    -0.135959      -0.233495
     13 H                     0.140353       0.013151
  --------------------------------------------------------
  Sum of atomic charges =    -0.000000

                    Cartesian Multipole Moments
 -----------------------------------------------------------------
    Charge (ESU x 10^10)
                -0.0000
    Dipole Moment (Debye)
         X      -0.5632      Y      -2.8208      Z       0.5693
       Tot       2.9323
    Quadrupole Moments (Debye-Ang)
        XX     -39.1110     XY      -3.6949     YY     -44.5675
        XZ       1.4434     YZ       0.3681     ZZ     -41.7511

 Total job time:  33.50s(wall), 122.66s(cpu)
        *  Thank you very much for using Q-Chem.  Have a nice day.  *
