 Q-Chem 5.0, Q-Chem, Inc., Pleasanton, CA (2017)
 Q-Chem 5.0.2 for Intel X86 EM64T Linux

User input:
--------------------------------------------------------------
$molecule
0 2
C        1.5371975125    0.4849760156   -0.1473826323
C        0.7765565379   -0.8139159279   -0.0211928841
C       -0.3851787580   -0.5876266771   -0.9345417515
C       -1.0615347245    0.5517249280    0.8091120967
C       -0.5917514514    0.9076941355   -0.5968027692
N        0.7969573414    1.4696070609   -0.4959373572
H        2.5927641320    0.6097071519    0.0889906793
H        1.3005874190   -1.7671034501   -0.0093837896
H       -0.9489029151   -1.2722554163   -1.5510746172
H       -1.7621832170    1.0453255935    1.4677938260
H       -1.2397514975    1.5254240083   -1.2177701301
C       -0.4085492315   -0.6805143467    0.9405927094
H       -0.6275737134   -1.4752240640    1.6501261555
$end

$rem
method                b3lyp
basis                 6-31g(d)
unrestricted          true
symmetry              off
sym_ignore            true
incdft                false
incfock               0
scf_convergence       8
thresh                14
jobtype               sp
scf_guess             read
scf_algorithm         diis
max_scf_cycles        100
$end

--------------------------------------------------------------

             Standard Nuclear Orientation (Angstroms)
    I     Atom           X                Y                Z
 ----------------------------------------------------------------
    1      C       1.5371975125     0.4849760156    -0.1473826323
    2      C       0.7765565379    -0.8139159279    -0.0211928841
    3      C      -0.3851787580    -0.5876266771    -0.9345417515
    4      C      -1.0615347245     0.5517249280     0.8091120967
    5      C      -0.5917514514     0.9076941355    -0.5968027692
    6      N       0.7969573414     1.4696070609    -0.4959373572
    7      H       2.5927641320     0.6097071519     0.0889906793
    8      H       1.3005874190    -1.7671034501    -0.0093837896
    9      H      -0.9489029151    -1.2722554163    -1.5510746172
   10      H      -1.7621832170     1.0453255935     1.4677938260
   11      H      -1.2397514975     1.5254240083    -1.2177701301
   12      C      -0.4085492315    -0.6805143467     0.9405927094
   13      H      -0.6275737134    -1.4752240640     1.6501261555
 ----------------------------------------------------------------

    2    -286.8208155681      6.21E-09 Convergence criterion met
 Total energy in the final basis set = -286.82081557

                    Orbital Energies (a.u.)
 --------------------------------------------------------------

 Alpha MOs
 -- Occupied --
-14.318 -10.221 -10.220 -10.217 -10.214 -10.209 -10.186  -0.955
 -0.837  -0.739  -0.679  -0.590  -0.576  -0.536  -0.515  -0.463
 -0.425  -0.408  -0.397  -0.376  -0.340  -0.295  -0.274  -0.252
 -0.140

 Beta MOs
 -- Occupied --
-14.318 -10.224 -10.220 -10.216 -10.214 -10.200 -10.176  -0.952
 -0.832  -0.731  -0.669  -0.586  -0.567  -0.534  -0.507  -0.458
 -0.421  -0.403  -0.395  -0.374  -0.335  -0.279  -0.263  -0.248

          Ground-State Mulliken Net Atomic Charges

     Atom                 Charge (a.u.)    Spin (a.u.)
  --------------------------------------------------------
      1 C                     0.098662       0.045191
      2 C                    -0.198583       0.004626
      3 C                    -0.133649       0.603422
      4 C                    -0.077546       0.684062
      5 C                    -0.095574      -0.069616
      6 N                    -0.338135      -0.005493
      7 H                     0.144908       0.001487
      8 H                     0.142472       0.003486
      9 H                     0.158263      -0.031086
     10 H                     0.141303      -0.029241
     11 H                     0.139905       0.008074
     12 C                    -0.130892      -0.229137
     13 H                     0.148867       0.014223
  --------------------------------------------------------
  Sum of atomic charges =    -0.000000

                    Cartesian Multipole Moments
 -----------------------------------------------------------------
    Charge (ESU x 10^10)
                -0.0000
    Dipole Moment (Debye)
         X      -0.5778      Y      -2.5765      Z       0.5419
       Tot       2.6955
    Quadrupole Moments (Debye-Ang)
        XX     -38.0699     XY      -3.1532     YY     -42.8433
        XZ       1.1707     YZ       0.5743     ZZ     -40.0856

 Total job time:  3.37s(wall), 6.83s(cpu)
        *  Thank you very much for using Q-Chem.  Have a nice day.  *
