 Q-Chem 5.0, Q-Chem, Inc., Pleasanton, CA (2017)
 Q-Chem 5.0.2 for Intel X86 EM64T Linux

User input:
--------------------------------------------------------------
$molecule
0 2
C        1.5665938282    0.4363573417   -0.1784117570
C        0.7658214390   -0.8323425733   -0.0959700448
C       -0.5141689661   -0.5238099277   -0.7774836087
C       -1.0187979846    0.6040070646    0.8009124989
C       -0.5385142531    0.9772822943   -0.6013712753
N        0.8663819355    1.4651735378   -0.4897796556
H        2.5723112745    0.5075890493    0.2344216201
H        1.2112940433   -1.8149640501   -0.2024218305
H       -1.1522684720   -1.1202237650   -1.4253333037
H       -2.0787273175    0.6129867002    1.0082718811
H       -1.1741499514    1.6203001106   -1.2052515611
C       -0.2414396102   -0.6454373532    1.0162994894
H       -0.2856985313   -1.2890994174    1.8986470831
$end

$rem
method                b3lyp
basis                 6-31g(d)
unrestricted          true
symmetry              off
sym_ignore            true
incdft                false
incfock               0
scf_convergence       8
thresh                14
jobtype               sp
scf_guess             core
scf_guess_mix         5
scf_algorithm         diis
max_scf_cycles        100
$end

--------------------------------------------------------------

             Standard Nuclear Orientation (Angstroms)
    I     Atom           X                Y                Z
 ----------------------------------------------------------------
    1      C       1.5665938282     0.4363573417    -0.1784117570
    2      C       0.7658214390    -0.8323425733    -0.0959700448
    3      C      -0.5141689661    -0.5238099277    -0.7774836087
    4      C      -1.0187979846     0.6040070646     0.8009124989
    5      C      -0.5385142531     0.9772822943    -0.6013712753
    6      N       0.8663819355     1.4651735378    -0.4897796556
    7      H       2.5723112745     0.5075890493     0.2344216201
    8      H       1.2112940433    -1.8149640501    -0.2024218305
    9      H      -1.1522684720    -1.1202237650    -1.4253333037
   10      H      -2.0787273175     0.6129867002     1.0082718811
   11      H      -1.1741499514     1.6203001106    -1.2052515611
   12      C      -0.2414396102    -0.6454373532     1.0162994894
   13      H      -0.2856985313    -1.2890994174     1.8986470831
 ----------------------------------------------------------------

   24    -286.7941795348      6.44E-09 Convergence criterion met
 Total energy in the final basis set = -286.79417953

                    Orbital Energies (a.u.)
 --------------------------------------------------------------

 Alpha MOs
 -- Occupied --
-14.320 -10.236 -10.223 -10.220 -10.219 -10.218 -10.180  -0.964
 -0.846  -0.749  -0.671  -0.596  -0.584  -0.543  -0.514  -0.464
 -0.429  -0.415  -0.398  -0.370  -0.340  -0.302  -0.272  -0.259
 -0.118

 Beta MOs
 -- Occupied --
-14.320 -10.233 -10.222 -10.220 -10.219 -10.219 -10.168  -0.961
 -0.842  -0.743  -0.661  -0.590  -0.580  -0.541  -0.504  -0.460
 -0.425  -0.411  -0.396  -0.366  -0.332  -0.288  -0.261  -0.251

          Ground-State Mulliken Net Atomic Charges

     Atom                 Charge (a.u.)    Spin (a.u.)
  --------------------------------------------------------
      1 C                     0.097777       0.010560
      2 C                    -0.177793      -0.009981
      3 C                    -0.109148       0.164068
      4 C                    -0.098253       0.834441
      5 C                    -0.092090      -0.025405
      6 N                    -0.332859       0.015344
      7 H                     0.144710       0.004662
      8 H                     0.153809      -0.000080
      9 H                     0.164863      -0.001100
     10 H                     0.132508      -0.029141
     11 H                     0.147302      -0.000347
     12 C                    -0.190304       0.042337
     13 H                     0.159478      -0.005359
  --------------------------------------------------------
  Sum of atomic charges =     0.000000

                    Cartesian Multipole Moments
 -----------------------------------------------------------------
    Charge (ESU x 10^10)
                -0.0000
    Dipole Moment (Debye)
         X      -0.5605      Y      -3.2614      Z      -0.3782
       Tot       3.3307
    Quadrupole Moments (Debye-Ang)
        XX     -37.7431     XY      -2.9455     YY     -44.0697
        XZ       2.6405     YZ      -0.7857     ZZ     -40.4040

 Total job time:  17.73s(wall), 60.28s(cpu)
        *  Thank you very much for using Q-Chem.  Have a nice day.  *
