 Q-Chem 5.0, Q-Chem, Inc., Pleasanton, CA (2017)
 Q-Chem 5.0.2 for Intel X86 EM64T Linux

User input:
--------------------------------------------------------------
$molecule
0 2
C        1.5415221120    0.4811609243   -0.1516428458
C        0.7757010328   -0.8138899312   -0.0199200762
C       -0.3931485247   -0.5881292990   -0.9245051420
C       -1.0537328198    0.5590798266    0.8178551345
C       -0.5913378995    0.9110773054   -0.5923554280
N        0.7996500782    1.4661576944   -0.5016370191
H        2.5979180092    0.6041083537    0.0775732442
H        1.2968699087   -1.7679853500   -0.0090710642
H       -0.9357738055   -1.2673827131   -1.5658130234
H       -1.7871214331    1.0323573591    1.4543089084
H       -1.2412678854    1.5292213364   -1.2088125347
C       -0.4049654533   -0.6772187833    0.9488108791
H       -0.6256758852   -1.4707377116    1.6577385029
$end

$rem
method                b3lyp
basis                 6-31+g(d,p)
unrestricted          true
symmetry              off
sym_ignore            true
incdft                false
incfock               0
scf_convergence       8
thresh                14
jobtype               sp
scf_guess             read
scf_algorithm         diis
max_scf_cycles        100
$end

--------------------------------------------------------------

             Standard Nuclear Orientation (Angstroms)
    I     Atom           X                Y                Z
 ----------------------------------------------------------------
    1      C       1.5415221120     0.4811609243    -0.1516428458
    2      C       0.7757010328    -0.8138899312    -0.0199200762
    3      C      -0.3931485247    -0.5881292990    -0.9245051420
    4      C      -1.0537328198     0.5590798266     0.8178551345
    5      C      -0.5913378995     0.9110773054    -0.5923554280
    6      N       0.7996500782     1.4661576944    -0.5016370191
    7      H       2.5979180092     0.6041083537     0.0775732442
    8      H       1.2968699087    -1.7679853500    -0.0090710642
    9      H      -0.9357738055    -1.2673827131    -1.5658130234
   10      H      -1.7871214331     1.0323573591     1.4543089084
   11      H      -1.2412678854     1.5292213364    -1.2088125347
   12      C      -0.4049654533    -0.6772187833     0.9488108791
   13      H      -0.6256758852    -1.4707377116     1.6577385029
 ----------------------------------------------------------------

    2    -286.8438515908      2.19E-09 Convergence criterion met
 Total energy in the final basis set = -286.84385159

                    Orbital Energies (a.u.)
 --------------------------------------------------------------

 Alpha MOs
 -- Occupied --
-14.334 -10.234 -10.231 -10.229 -10.225 -10.222 -10.199  -0.969
 -0.850  -0.750  -0.690  -0.601  -0.587  -0.546  -0.524  -0.474
 -0.436  -0.418  -0.409  -0.387  -0.351  -0.307  -0.287  -0.266
 -0.152

 Beta MOs
 -- Occupied --
-14.334 -10.236 -10.232 -10.228 -10.225 -10.214 -10.189  -0.965
 -0.844  -0.743  -0.680  -0.597  -0.577  -0.544  -0.516  -0.469
 -0.432  -0.413  -0.407  -0.385  -0.346  -0.291  -0.277  -0.262

          Ground-State Mulliken Net Atomic Charges

     Atom                 Charge (a.u.)    Spin (a.u.)
  --------------------------------------------------------
      1 C                    -0.064083       0.042030
      2 C                    -0.015952      -0.033633
      3 C                    -0.277704       0.641923
      4 C                    -0.131312       0.739135
      5 C                     0.012668      -0.123988
      6 N                    -0.206061      -0.003055
      7 H                     0.134959       0.001378
      8 H                     0.131535       0.003542
      9 H                     0.147090      -0.027868
     10 H                     0.138907      -0.030752
     11 H                     0.130408       0.008151
     12 C                    -0.141112      -0.229373
     13 H                     0.140658       0.012511
  --------------------------------------------------------
  Sum of atomic charges =    -0.000000

                    Cartesian Multipole Moments
 -----------------------------------------------------------------
    Charge (ESU x 10^10)
                -0.0000
    Dipole Moment (Debye)
         X      -0.5817      Y      -2.8402      Z       0.5313
       Tot       2.9475
    Quadrupole Moments (Debye-Ang)
        XX     -38.9951     XY      -3.7527     YY     -44.6317
        XZ       1.4049     YZ       0.3200     ZZ     -41.7575

 Total job time:  5.88s(wall), 12.13s(cpu)
        *  Thank you very much for using Q-Chem.  Have a nice day.  *
