 Q-Chem 5.0, Q-Chem, Inc., Pleasanton, CA (2017)
 Q-Chem 5.0.2 for Intel X86 EM64T Linux

User input:
--------------------------------------------------------------
$molecule
0 2
C        1.5415221120    0.4811609243   -0.1516428458
C        0.7757010328   -0.8138899312   -0.0199200762
C       -0.3931485247   -0.5881292990   -0.9245051420
C       -1.0537328198    0.5590798266    0.8178551345
C       -0.5913378995    0.9110773054   -0.5923554280
N        0.7996500782    1.4661576944   -0.5016370191
H        2.5979180092    0.6041083537    0.0775732442
H        1.2968699087   -1.7679853500   -0.0090710642
H       -0.9357738055   -1.2673827131   -1.5658130234
H       -1.7871214331    1.0323573591    1.4543089084
H       -1.2412678854    1.5292213364   -1.2088125347
C       -0.4049654533   -0.6772187833    0.9488108791
H       -0.6256758852   -1.4707377116    1.6577385029
$end

$rem
method                b3lyp
basis                 6-31+g(d,p)
unrestricted          true
symmetry              off
sym_ignore            true
incdft                false
incfock               0
scf_convergence       8
thresh                14
jobtype               freq
scf_guess             read
scf_algorithm         diis
max_scf_cycles        100
$end

--------------------------------------------------------------

             Standard Nuclear Orientation (Angstroms)
    I     Atom           X                Y                Z
 ----------------------------------------------------------------
    1      C       1.5415221120     0.4811609243    -0.1516428458
    2      C       0.7757010328    -0.8138899312    -0.0199200762
    3      C      -0.3931485247    -0.5881292990    -0.9245051420
    4      C      -1.0537328198     0.5590798266     0.8178551345
    5      C      -0.5913378995     0.9110773054    -0.5923554280
    6      N       0.7996500782     1.4661576944    -0.5016370191
    7      H       2.5979180092     0.6041083537     0.0775732442
    8      H       1.2968699087    -1.7679853500    -0.0090710642
    9      H      -0.9357738055    -1.2673827131    -1.5658130234
   10      H      -1.7871214331     1.0323573591     1.4543089084
   11      H      -1.2412678854     1.5292213364    -1.2088125347
   12      C      -0.4049654533    -0.6772187833     0.9488108791
   13      H      -0.6256758852    -1.4707377116     1.6577385029
 ----------------------------------------------------------------

    2    -286.8438515908      6.11E-10 Convergence criterion met
 Total energy in the final basis set = -286.84385159

                    Orbital Energies (a.u.)
 --------------------------------------------------------------

 Alpha MOs
 -- Occupied --
-14.334 -10.234 -10.231 -10.229 -10.225 -10.222 -10.199  -0.969
 -0.850  -0.750  -0.690  -0.601  -0.587  -0.546  -0.524  -0.474
 -0.436  -0.418  -0.409  -0.387  -0.351  -0.307  -0.287  -0.266
 -0.152

 Beta MOs
 -- Occupied --
-14.334 -10.236 -10.232 -10.228 -10.225 -10.214 -10.189  -0.965
 -0.844  -0.743  -0.680  -0.597  -0.577  -0.544  -0.516  -0.469
 -0.432  -0.413  -0.407  -0.385  -0.346  -0.291  -0.277  -0.262

          Ground-State Mulliken Net Atomic Charges

     Atom                 Charge (a.u.)    Spin (a.u.)
  --------------------------------------------------------
      1 C                    -0.064083       0.042027
      2 C                    -0.015952      -0.033633
      3 C                    -0.277704       0.641924
      4 C                    -0.131312       0.739136
      5 C                     0.012668      -0.123989
      6 N                    -0.206061      -0.003053
      7 H                     0.134959       0.001379
      8 H                     0.131535       0.003542
      9 H                     0.147090      -0.027868
     10 H                     0.138907      -0.030752
     11 H                     0.130408       0.008151
     12 C                    -0.141112      -0.229375
     13 H                     0.140658       0.012511
  --------------------------------------------------------
  Sum of atomic charges =    -0.000000

                    Cartesian Multipole Moments
 -----------------------------------------------------------------
    Charge (ESU x 10^10)
                -0.0000
    Dipole Moment (Debye)
         X      -0.5817      Y      -2.8402      Z       0.5313
       Tot       2.9475
    Quadrupole Moments (Debye-Ang)
        XX     -38.9951     XY      -3.7527     YY     -44.6317
        XZ       1.4049     YZ       0.3200     ZZ     -41.7575

 Frequency:      -742.36                 263.03                 350.50
 Force Cnst:      1.8044                 0.0482                 0.0762
 Red. Mass:       5.5572                 1.1832                 1.0534
 IR Intens:       58.992                 16.842                 36.347
 Frequency:       449.36                 476.26                 592.60
 Force Cnst:      0.5679                 0.5336                 0.7715
 Red. Mass:       4.7737                 3.9929                 3.7287
 IR Intens:        6.553                 10.147                  3.847
 Frequency:       716.29                 784.54                 810.62
 Force Cnst:      2.0630                 1.8351                 0.9012
 Red. Mass:       6.8244                 5.0604                 2.3278
 IR Intens:        0.571                  5.612                  5.546
 Frequency:       858.08                 876.97                 898.76
 Force Cnst:      1.3553                 1.1948                 0.8365
 Red. Mass:       3.1242                 2.6368                 1.7577
 IR Intens:        4.763                 27.755                  3.098
 Frequency:       910.34                 918.66                 939.65
 Force Cnst:      0.8894                 1.1333                 1.1046
 Red. Mass:       1.8215                 2.2793                 2.1233
 IR Intens:       10.152                 10.005                  2.926
 Frequency:       961.81                1024.75                1084.18
 Force Cnst:      0.8938                 1.0764                 1.1618
 Red. Mass:       1.6399                 1.7397                 1.6775
 IR Intens:        7.531                  6.018                  5.431
 Frequency:      1139.85                1180.17                1217.87
 Force Cnst:      1.3345                 1.7527                 1.1821
 Red. Mass:       1.7433                 2.1359                 1.3527
 IR Intens:        4.803                  5.422                  1.610
 Frequency:      1262.98                1281.31                1306.75
 Force Cnst:      1.1509                 1.3959                 2.0188
 Red. Mass:       1.2246                 1.4431                 2.0066
 IR Intens:        1.135                  3.811                 14.623
 Frequency:      1320.85                1403.83                1643.40
 Force Cnst:      1.6074                 3.0396                12.4919
 Red. Mass:       1.5638                 2.6178                 7.8504
 IR Intens:       20.312                  1.966                 26.549
 Frequency:      3162.42                3170.79                3183.25
 Force Cnst:      6.4256                 6.4559                 6.5325
 Red. Mass:       1.0905                 1.0899                 1.0942
 IR Intens:       23.155                  7.011                 16.995
 Frequency:      3191.17                3266.44                3273.13
 Force Cnst:      6.5582                 6.8810                 6.9217
 Red. Mass:       1.0930                 1.0946                 1.0966
 IR Intens:       17.167                  0.401                  0.723

 STANDARD THERMODYNAMIC QUANTITIES AT   298.15 K  AND     1.00 ATM

   This Molecule has  1 Imaginary Frequencies
   Zero point vibrational energy:       62.788 kcal/mol

   Atom    1 Element C  Has Mass   12.00000
   Atom    2 Element C  Has Mass   12.00000
   Atom    3 Element C  Has Mass   12.00000
   Atom    4 Element C  Has Mass   12.00000
   Atom    5 Element C  Has Mass   12.00000
   Atom    6 Element N  Has Mass   14.00307
   Atom    7 Element H  Has Mass    1.00783
   Atom    8 Element H  Has Mass    1.00783
   Atom    9 Element H  Has Mass    1.00783
   Atom   10 Element H  Has Mass    1.00783
   Atom   11 Element H  Has Mass    1.00783
   Atom   12 Element C  Has Mass   12.00000
   Atom   13 Element H  Has Mass    1.00783
   Molecular Mass:    92.050050 amu
   Principal axes and moments of inertia in amu*Bohr^2:
                             1           2           3
    Eigenvalues --      377.15072   458.03453   570.84179
          X               0.77337    -0.56963     0.27826
          Y               0.49780     0.81743     0.28985
          Z              -0.39256    -0.08564     0.91573
   Rotational Symmetry Number is   1
   The Molecule is an Asymmetric Top
   Translational Enthalpy:        0.889 kcal/mol
   Rotational Enthalpy:           0.889 kcal/mol
   Vibrational Enthalpy:         64.233 kcal/mol
   gas constant (RT):             0.592 kcal/mol
   Translational Entropy:        39.471  cal/mol.K
   Rotational Entropy:           26.092  cal/mol.K
   Vibrational Entropy:           6.867  cal/mol.K

   Total Enthalpy:               66.603 kcal/mol
   Total Entropy:                72.429  cal/mol.K

 Total job time:  575.07s(wall), 558.84s(cpu)
        *  Thank you very much for using Q-Chem.  Have a nice day.  *
