 Q-Chem 5.0, Q-Chem, Inc., Pleasanton, CA (2017)
 Q-Chem 5.0.2 for Intel X86 EM64T Linux

User input:
--------------------------------------------------------------
$molecule
0 2
C        1.5371975125    0.4849760156   -0.1473826323
C        0.7765565379   -0.8139159279   -0.0211928841
C       -0.3851787580   -0.5876266771   -0.9345417515
C       -1.0615347245    0.5517249280    0.8091120967
C       -0.5917514514    0.9076941355   -0.5968027692
N        0.7969573414    1.4696070609   -0.4959373572
H        2.5927641320    0.6097071519    0.0889906793
H        1.3005874190   -1.7671034501   -0.0093837896
H       -0.9489029151   -1.2722554163   -1.5510746172
H       -1.7621832170    1.0453255935    1.4677938260
H       -1.2397514975    1.5254240083   -1.2177701301
C       -0.4085492315   -0.6805143467    0.9405927094
H       -0.6275737134   -1.4752240640    1.6501261555
$end

$rem
method                b3lyp
basis                 6-31+g(d,p)
unrestricted          true
symmetry              off
sym_ignore            true
incdft                false
incfock               0
scf_convergence       8
thresh                14
jobtype               freq
scf_guess             read
scf_algorithm         diis
max_scf_cycles        100
$end

--------------------------------------------------------------

             Standard Nuclear Orientation (Angstroms)
    I     Atom           X                Y                Z
 ----------------------------------------------------------------
    1      C       1.5371975125     0.4849760156    -0.1473826323
    2      C       0.7765565379    -0.8139159279    -0.0211928841
    3      C      -0.3851787580    -0.5876266771    -0.9345417515
    4      C      -1.0615347245     0.5517249280     0.8091120967
    5      C      -0.5917514514     0.9076941355    -0.5968027692
    6      N       0.7969573414     1.4696070609    -0.4959373572
    7      H       2.5927641320     0.6097071519     0.0889906793
    8      H       1.3005874190    -1.7671034501    -0.0093837896
    9      H      -0.9489029151    -1.2722554163    -1.5510746172
   10      H      -1.7621832170     1.0453255935     1.4677938260
   11      H      -1.2397514975     1.5254240083    -1.2177701301
   12      C      -0.4085492315    -0.6805143467     0.9405927094
   13      H      -0.6275737134    -1.4752240640     1.6501261555
 ----------------------------------------------------------------

    2    -286.8438140450      1.54E-09 Convergence criterion met
 Total energy in the final basis set = -286.84381405

                    Orbital Energies (a.u.)
 --------------------------------------------------------------

 Alpha MOs
 -- Occupied --
-14.334 -10.233 -10.231 -10.229 -10.226 -10.222 -10.199  -0.969
 -0.851  -0.750  -0.690  -0.601  -0.587  -0.546  -0.524  -0.475
 -0.435  -0.419  -0.409  -0.386  -0.352  -0.307  -0.286  -0.266
 -0.153

 Beta MOs
 -- Occupied --
-14.334 -10.236 -10.232 -10.228 -10.225 -10.213 -10.190  -0.966
 -0.845  -0.743  -0.680  -0.596  -0.578  -0.543  -0.516  -0.469
 -0.431  -0.414  -0.407  -0.384  -0.346  -0.292  -0.276  -0.262

          Ground-State Mulliken Net Atomic Charges

     Atom                 Charge (a.u.)    Spin (a.u.)
  --------------------------------------------------------
      1 C                    -0.063955       0.042127
      2 C                    -0.021018      -0.029481
      3 C                    -0.277144       0.642517
      4 C                    -0.138201       0.735845
      5 C                     0.018619      -0.124634
      6 N                    -0.206645      -0.002555
      7 H                     0.134768       0.001321
      8 H                     0.131554       0.003935
      9 H                     0.148586      -0.028989
     10 H                     0.138490      -0.028586
     11 H                     0.130553       0.008846
     12 C                    -0.135959      -0.233498
     13 H                     0.140353       0.013151
  --------------------------------------------------------
  Sum of atomic charges =    -0.000000

                    Cartesian Multipole Moments
 -----------------------------------------------------------------
    Charge (ESU x 10^10)
                -0.0000
    Dipole Moment (Debye)
         X      -0.5632      Y      -2.8208      Z       0.5693
       Tot       2.9323
    Quadrupole Moments (Debye-Ang)
        XX     -39.1110     XY      -3.6949     YY     -44.5675
        XZ       1.4434     YZ       0.3681     ZZ     -41.7511

 Frequency:      -757.93                 300.92                 365.22
 Force Cnst:      1.7572                 0.0638                 0.0848
 Red. Mass:       5.1917                 1.1963                 1.0796
 IR Intens:       65.392                 14.696                 36.049
 Frequency:       452.96                 475.53                 589.98
 Force Cnst:      0.5358                 0.5218                 0.7553
 Red. Mass:       4.4325                 3.9168                 3.6830
 IR Intens:        9.879                 12.004                  3.533
 Frequency:       716.13                 784.92                 812.07
 Force Cnst:      2.1149                 1.9100                 0.9026
 Red. Mass:       6.9995                 5.2618                 2.3232
 IR Intens:        0.699                  6.440                  5.095
 Frequency:       859.58                 877.49                 901.27
 Force Cnst:      1.3942                 1.2454                 0.8524
 Red. Mass:       3.2026                 2.7451                 1.7811
 IR Intens:        6.317                 26.089                  3.009
 Frequency:       912.39                 919.75                 940.01
 Force Cnst:      0.9166                 1.0569                 1.1119
 Red. Mass:       1.8687                 2.1204                 2.1357
 IR Intens:        6.191                 13.788                  3.228
 Frequency:       962.64                1026.89                1086.41
 Force Cnst:      0.8872                 1.0821                 1.1556
 Red. Mass:       1.6251                 1.7417                 1.6618
 IR Intens:        7.352                  5.710                  5.451
 Frequency:      1141.21                1184.33                1219.68
 Force Cnst:      1.3251                 1.7561                 1.1847
 Red. Mass:       1.7269                 2.1250                 1.3516
 IR Intens:        4.788                  5.355                  1.859
 Frequency:      1265.77                1283.98                1307.79
 Force Cnst:      1.1539                 1.3979                 2.0182
 Red. Mass:       1.2224                 1.4391                 2.0028
 IR Intens:        1.037                  3.741                 15.044
 Frequency:      1323.34                1409.16                1651.07
 Force Cnst:      1.6027                 3.1190                12.6979
 Red. Mass:       1.5533                 2.6659                 7.9059
 IR Intens:       20.029                  2.012                 27.098
 Frequency:      3150.83                3164.12                3174.46
 Force Cnst:      6.3785                 6.4296                 6.4943
 Red. Mass:       1.0905                 1.0900                 1.0938
 IR Intens:       23.608                  5.863                 16.602
 Frequency:      3182.05                3258.88                3277.03
 Force Cnst:      6.5223                 6.8556                 6.9313
 Red. Mass:       1.0933                 1.0956                 1.0955
 IR Intens:       20.105                  1.024                  0.607

 STANDARD THERMODYNAMIC QUANTITIES AT   298.15 K  AND     1.00 ATM

   This Molecule has  1 Imaginary Frequencies
   Zero point vibrational energy:       62.870 kcal/mol

   Atom    1 Element C  Has Mass   12.00000
   Atom    2 Element C  Has Mass   12.00000
   Atom    3 Element C  Has Mass   12.00000
   Atom    4 Element C  Has Mass   12.00000
   Atom    5 Element C  Has Mass   12.00000
   Atom    6 Element N  Has Mass   14.00307
   Atom    7 Element H  Has Mass    1.00783
   Atom    8 Element H  Has Mass    1.00783
   Atom    9 Element H  Has Mass    1.00783
   Atom   10 Element H  Has Mass    1.00783
   Atom   11 Element H  Has Mass    1.00783
   Atom   12 Element C  Has Mass   12.00000
   Atom   13 Element H  Has Mass    1.00783
   Molecular Mass:    92.050050 amu
   Principal axes and moments of inertia in amu*Bohr^2:
                             1           2           3
    Eigenvalues --      377.09748   457.66964   570.03004
          X               0.77165    -0.57396     0.27410
          Y               0.50428     0.81470     0.28629
          Z              -0.38763    -0.08269     0.91810
   Rotational Symmetry Number is   1
   The Molecule is an Asymmetric Top
   Translational Enthalpy:        0.889 kcal/mol
   Rotational Enthalpy:           0.889 kcal/mol
   Vibrational Enthalpy:         64.271 kcal/mol
   gas constant (RT):             0.592 kcal/mol
   Translational Entropy:        39.471  cal/mol.K
   Rotational Entropy:           26.089  cal/mol.K
   Vibrational Entropy:           6.558  cal/mol.K

   Total Enthalpy:               66.641 kcal/mol
   Total Entropy:                72.119  cal/mol.K

 Total job time:  564.10s(wall), 558.46s(cpu)
        *  Thank you very much for using Q-Chem.  Have a nice day.  *
