 Q-Chem 5.0, Q-Chem, Inc., Pleasanton, CA (2017)
 Q-Chem 5.0.2 for Intel X86 EM64T Linux

User input:
--------------------------------------------------------------
$molecule
0 2
C        1.5665938282    0.4363573417   -0.1784117570
C        0.7658214390   -0.8323425733   -0.0959700448
C       -0.5141689661   -0.5238099277   -0.7774836087
C       -1.0187979846    0.6040070646    0.8009124989
C       -0.5385142531    0.9772822943   -0.6013712753
N        0.8663819355    1.4651735378   -0.4897796556
H        2.5723112745    0.5075890493    0.2344216201
H        1.2112940433   -1.8149640501   -0.2024218305
H       -1.1522684720   -1.1202237650   -1.4253333037
H       -2.0787273175    0.6129867002    1.0082718811
H       -1.1741499514    1.6203001106   -1.2052515611
C       -0.2414396102   -0.6454373532    1.0162994894
H       -0.2856985313   -1.2890994174    1.8986470831
$end

$rem
method                b3lyp
basis                 6-31g(d)
unrestricted          true
symmetry              off
sym_ignore            true
incdft                false
incfock               0
scf_convergence       8
thresh                14
jobtype               ts
scf_guess             read
scf_algorithm         diis
max_scf_cycles        100
geom_opt_max_cycles   500
geom_opt_dmax         100
geom_opt_tol_gradient 10
geom_opt_hessian      read
$end

--------------------------------------------------------------

    2    -286.7941795350      1.03E-09 Convergence criterion met
 Total energy in the final basis set = -286.79417954
   14    -286.7974997273      7.70E-09 Convergence criterion met
 Total energy in the final basis set = -286.79749973
   14    -286.8007697216      5.42E-09 Convergence criterion met
 Total energy in the final basis set = -286.80076972
   14    -286.8038701547      3.59E-09 Convergence criterion met
 Total energy in the final basis set = -286.80387015
   14    -286.8064984342      3.02E-09 Convergence criterion met
 Total energy in the final basis set = -286.80649843
   14    -286.8075816882      3.14E-09 Convergence criterion met
 Total energy in the final basis set = -286.80758169
   13    -286.8067304296      3.86E-09 Convergence criterion met
 Total energy in the final basis set = -286.80673043
   13    -286.8058582908      4.57E-09 Convergence criterion met
   11    -286.8208152455      6.80E-09 Convergence criterion met
 Total energy in the final basis set = -286.82081525
   11    -286.8208154346      4.62E-09 Convergence criterion met
 Total energy in the final basis set = -286.82081543
   10    -286.8208154908      4.04E-09 Convergence criterion met
 Total energy in the final basis set = -286.82081549
   10    -286.8208155455      6.59E-09 Convergence criterion met
 Total energy in the final basis set = -286.82081555
    9    -286.8208155621      9.70E-09 Convergence criterion met
 Total energy in the final basis set = -286.82081556
    8    -286.8208155667      2.68E-09 Convergence criterion met
 Total energy in the final basis set = -286.82081557

             Standard Nuclear Orientation (Angstroms)
    I     Atom           X                Y                Z
 ----------------------------------------------------------------
    1      C       1.5371975125     0.4849760156    -0.1473826323
    2      C       0.7765565379    -0.8139159279    -0.0211928841
    3      C      -0.3851787580    -0.5876266771    -0.9345417515
    4      C      -1.0615347245     0.5517249280     0.8091120967
    5      C      -0.5917514514     0.9076941355    -0.5968027692
    6      N       0.7969573414     1.4696070609    -0.4959373572
    7      H       2.5927641320     0.6097071519     0.0889906793
    8      H       1.3005874190    -1.7671034501    -0.0093837896
    9      H      -0.9489029151    -1.2722554163    -1.5510746172
   10      H      -1.7621832170     1.0453255935     1.4677938260
   11      H      -1.2397514975     1.5254240083    -1.2177701301
   12      C      -0.4085492315    -0.6805143467     0.9405927094
   13      H      -0.6275737134    -1.4752240640     1.6501261555
 ----------------------------------------------------------------

    8    -286.8208155681      7.20E-09 Convergence criterion met
 Total energy in the final basis set = -286.82081557
 Final energy is   -286.820815568061
 **  OPTIMIZATION CONVERGED  **

                    Orbital Energies (a.u.)
 --------------------------------------------------------------

 Alpha MOs
 -- Occupied --
-14.318 -10.221 -10.220 -10.217 -10.214 -10.209 -10.186  -0.955
 -0.837  -0.739  -0.679  -0.590  -0.576  -0.536  -0.515  -0.463
 -0.425  -0.408  -0.397  -0.376  -0.340  -0.295  -0.274  -0.252
 -0.140

 Beta MOs
 -- Occupied --
-14.318 -10.224 -10.220 -10.216 -10.214 -10.200 -10.176  -0.952
 -0.832  -0.731  -0.669  -0.586  -0.567  -0.534  -0.507  -0.458
 -0.421  -0.403  -0.395  -0.374  -0.335  -0.279  -0.263  -0.248

          Ground-State Mulliken Net Atomic Charges

     Atom                 Charge (a.u.)    Spin (a.u.)
  --------------------------------------------------------
      1 C                     0.098663       0.045191
      2 C                    -0.198583       0.004626
      3 C                    -0.133649       0.603421
      4 C                    -0.077546       0.684063
      5 C                    -0.095574      -0.069616
      6 N                    -0.338135      -0.005494
      7 H                     0.144908       0.001487
      8 H                     0.142472       0.003486
      9 H                     0.158263      -0.031086
     10 H                     0.141303      -0.029241
     11 H                     0.139905       0.008074
     12 C                    -0.130892      -0.229136
     13 H                     0.148867       0.014223
  --------------------------------------------------------
  Sum of atomic charges =    -0.000000

                    Cartesian Multipole Moments
 -----------------------------------------------------------------
    Charge (ESU x 10^10)
                 0.0000
    Dipole Moment (Debye)
         X      -0.5778      Y      -2.5765      Z       0.5419
       Tot       2.6955
    Quadrupole Moments (Debye-Ang)
        XX     -38.0699     XY      -3.1532     YY     -42.8433
        XZ       1.1707     YZ       0.5743     ZZ     -40.0856

 Total job time:  799.91s(wall), 2740.67s(cpu)
        *  Thank you very much for using Q-Chem.  Have a nice day.  *
