 Q-Chem 5.0, Q-Chem, Inc., Pleasanton, CA (2017)
 Q-Chem 5.0.2 for Intel X86 EM64T Linux

User input:
--------------------------------------------------------------
$molecule
0 2
C        1.0794514127    0.2310538929    0.4633299753
C        0.9289042621   -0.9674814235   -0.4057512860
C       -0.3899805699   -1.0340040545   -0.6664680716
C       -1.0639505014    0.2250613326    0.1294938497
C       -0.4291479966    1.4215180609   -0.5226731690
N        0.8464027053    1.4742767714   -0.3321849531
H        2.0277345769    0.4263136630    0.9769710731
H        1.7287085651   -1.5582246586   -0.8258977503
H       -1.0075493272   -1.8618957285   -0.9681904808
H       -2.1448701339    0.2210717848   -0.0510420056
H       -0.9888294263    2.1714836306   -1.0806540838
C       -0.2520621434    0.0573567834    1.3128449508
H       -0.3348114239   -0.8065300546    1.9702219512
$end

$rem
method                b3lyp
basis                 6-31g(d)
unrestricted          true
symmetry              off
sym_ignore            true
incdft                false
incfock               0
scf_convergence       8
thresh                14
jobtype               opt
scf_guess             read
scf_algorithm         diis
max_scf_cycles        100
geom_opt_tol_gradient 600
geom_opt_tol_displacement 2400
geom_opt_tol_energy   200
geom_opt_max_cycles   100
$end

--------------------------------------------------------------

    2    -286.8274221311      1.90E-09 Convergence criterion met
 Total energy in the final basis set = -286.82742213
   14    -286.8386978375      8.63E-09 Convergence criterion met
 Total energy in the final basis set = -286.83869784
   14    -286.8455455059      8.89E-09 Convergence criterion met
 Total energy in the final basis set = -286.84554551
   14    -286.8493441340      8.01E-09 Convergence criterion met
 Total energy in the final basis set = -286.84934413
   14    -286.8511322306      4.55E-09 Convergence criterion met
 Total energy in the final basis set = -286.85113223
   14    -286.8516082808      2.87E-09 Convergence criterion met
 Total energy in the final basis set = -286.85160828
   13    -286.8516202451      8.87E-09 Convergence criterion met
 Total energy in the final basis set = -286.85162025
   12    -286.8516669333      6.04E-09 Convergence criterion met
 Total energy in the final basis set = -286.85166693
   10    -286.8516701831      6.66E-09 Convergence criterion met
 Total energy in the final basis set = -286.85167018

             Standard Nuclear Orientation (Angstroms)
    I     Atom           X                Y                Z
 ----------------------------------------------------------------
    1      C       1.1030394781     0.2524178275     0.4984848315
    2      C       0.8965371782    -0.9761339004    -0.4013530222
    3      C      -0.4175401789    -1.0426117311    -0.6702090398
    4      C      -1.0803082948     0.1425020325     0.0616448036
    5      C      -0.4529365067     1.4113853921    -0.5498412346
    6      N       0.7996760500     1.4966108483    -0.3219917490
    7      H       2.0603518839     0.3332620513     1.0112166881
    8      H       1.6870013761    -1.6266968215    -0.7590908557
    9      H      -0.9408805778    -1.7524868471    -1.3014145900
   10      H      -2.1649183002     0.1161099674     0.1673333594
   11      H      -0.9924830829     2.1529724789    -1.1365239258
   12      C      -0.1831825938     0.1120654361     1.3029870256
   13      H      -0.3143564316    -0.6193967343     2.0987577088
 ----------------------------------------------------------------

   10    -286.8516713023      5.58E-09 Convergence criterion met
 Total energy in the final basis set = -286.85167130
 Final energy is   -286.851671302348
 **  OPTIMIZATION CONVERGED  **

                    Orbital Energies (a.u.)
 --------------------------------------------------------------

 Alpha MOs
 -- Occupied --
-14.322 -10.224 -10.220 -10.210 -10.204 -10.201 -10.198  -0.953
 -0.821  -0.726  -0.705  -0.579  -0.573  -0.531  -0.512  -0.472
 -0.418  -0.410  -0.381  -0.373  -0.348  -0.294  -0.271  -0.258
 -0.196

 Beta MOs
 -- Occupied --
-14.321 -10.224 -10.221 -10.210 -10.200 -10.196 -10.190  -0.949
 -0.815  -0.725  -0.690  -0.577  -0.561  -0.527  -0.509  -0.463
 -0.414  -0.406  -0.379  -0.369  -0.342  -0.287  -0.261  -0.255

          Ground-State Mulliken Net Atomic Charges

     Atom                 Charge (a.u.)    Spin (a.u.)
  --------------------------------------------------------
      1 C                    -0.094125      -0.044925
      2 C                    -0.088209       0.040370
      3 C                    -0.095799       0.079568
      4 C                    -0.246173      -0.043791
      5 C                     0.092298      -0.008801
      6 N                    -0.325215       0.021755
      7 H                     0.139774       0.003033
      8 H                     0.146129       0.000863
      9 H                     0.145604       0.000339
     10 H                     0.133918       0.002866
     11 H                     0.149676      -0.000177
     12 C                    -0.096670       0.975346
     13 H                     0.138792      -0.026446
  --------------------------------------------------------
  Sum of atomic charges =    -0.000000

                    Cartesian Multipole Moments
 -----------------------------------------------------------------
    Charge (ESU x 10^10)
                -0.0000
    Dipole Moment (Debye)
         X      -1.3906      Y      -1.9253      Z      -0.0748
       Tot       2.3762
    Quadrupole Moments (Debye-Ang)
        XX     -38.1826     XY      -3.8063     YY     -42.8447
        XZ       2.2308     YZ       0.2505     ZZ     -40.4573

 Total job time:  99.94s(wall), 370.17s(cpu)
        *  Thank you very much for using Q-Chem.  Have a nice day.  *
