 Q-Chem 5.0, Q-Chem, Inc., Pleasanton, CA (2017)
 Q-Chem 5.0.2 for Intel X86 EM64T Linux

User input:
--------------------------------------------------------------
$molecule
0 2
C        1.5434760884    0.3858143662   -0.1753184021
C        0.6693660864   -0.8625081413   -0.0379138367
C       -0.5043027226   -0.4499525031   -0.9576563082
C       -1.0965489010    0.3134439487    0.6396653382
C       -0.5173978408    0.9939002290   -0.6010755935
N        0.8727826079    1.4447284963   -0.4575641644
H        2.6060839659    0.4219049182    0.0550351109
H        1.1473966534   -1.8362532132   -0.1394733930
H       -1.1132032332   -1.0316439148   -1.6356304807
H       -2.0691905420    0.6006635492    1.0295884180
H       -1.1801588377    1.6853956861   -1.1129971504
C       -0.1937864422   -0.6066654359    1.1967551791
H       -0.1890614072   -1.0851859466    2.1660495624
$end

$rem
method                b3lyp
basis                 6-31+g(d,p)
unrestricted          true
symmetry              off
sym_ignore            true
incdft                false
incfock               0
scf_convergence       8
thresh                14
jobtype               rpath
scf_guess             core
scf_guess_mix         5
scf_algorithm         diis
max_scf_cycles        100
rpath_direction       1
rpath_tol_displacement 1000
rpath_max_cycles      50
geom_opt_max_cycles   300
geom_opt_hessian      read
$end

--------------------------------------------------------------

   22    -286.8476211924      6.53E-09 Convergence criterion met
 Total energy in the final basis set = -286.84762119
   22    -286.8490262460      7.85E-09 Convergence criterion met
 Total energy in the final basis set = -286.84902625
   22    -286.8489737091      5.68E-09 Convergence criterion met
 Total energy in the final basis set = -286.84897371
   22    -286.8490295373      7.78E-09 Convergence criterion met
 Total energy in the final basis set = -286.84902954
   21    -286.8519343877      8.25E-09 Convergence criterion met
 Total energy in the final basis set = -286.85193439
   21    -286.8516784822      7.93E-09 Convergence criterion met
 Total energy in the final basis set = -286.85167848
   21    -286.8519424048      8.21E-09 Convergence criterion met
 Total energy in the final basis set = -286.85194240
   21    -286.8544679723      3.55E-09 Convergence criterion met
 Total energy in the final basis set = -286.87305291
   21    -286.8734894668      6.09E-09 Convergence criterion met
 Total energy in the final basis set = -286.87348947
   21    -286.8734619916      6.33E-09 Convergence criterion met
 Total energy in the final basis set = -286.87346199
   21    -286.8734935033      5.92E-09 Convergence criterion met
 Total energy in the final basis set = -286.87349350
   21    -286.8681742399      9.84E-09 Convergence criterion met
 Total energy in the final basis set = -286.86817424
   21    -286.8734947993      5.94E-09 Convergence criterion met
 Total energy in the final basis set = -286.87349480
   21    -286.8734945944      5.92E-09 Convergence criterion met
 Total energy in the final basis set = -286.87349459
   21    -286.8734951267      5.93E-09 Convergence criterion met
 Total energy in the final basis set = -286.87349513

                    Orbital Energies (a.u.)
 --------------------------------------------------------------

 Alpha MOs
 -- Occupied --
-14.337 -10.235 -10.231 -10.221 -10.216 -10.213 -10.209  -0.965
 -0.832  -0.737  -0.715  -0.589  -0.583  -0.539  -0.520  -0.481
 -0.429  -0.420  -0.391  -0.382  -0.358  -0.305  -0.283  -0.271
 -0.206

 Beta MOs
 -- Occupied --
-14.336 -10.235 -10.231 -10.221 -10.211 -10.208 -10.202  -0.961
 -0.827  -0.735  -0.700  -0.587  -0.571  -0.536  -0.517  -0.472
 -0.426  -0.416  -0.389  -0.379  -0.352  -0.298  -0.273  -0.268

          Ground-State Mulliken Net Atomic Charges

     Atom                 Charge (a.u.)    Spin (a.u.)
  --------------------------------------------------------
      1 C                    -0.092137      -0.031644
      2 C                     0.009551      -0.061350
      3 C                    -0.270808       1.034993
      4 C                    -0.147440       0.044900
      5 C                     0.024142      -0.089677
      6 N                    -0.203111       0.025953
      7 H                     0.137374      -0.000089
      8 H                     0.124764       0.003439
      9 H                     0.138866      -0.026267
     10 H                     0.138867       0.000710
     11 H                     0.129345       0.003590
     12 C                    -0.127829       0.095342
     13 H                     0.138417       0.000101
  --------------------------------------------------------
  Sum of atomic charges =     0.000000

                    Cartesian Multipole Moments
 -----------------------------------------------------------------
    Charge (ESU x 10^10)
                 0.0000
    Dipole Moment (Debye)
         X      -0.7317      Y      -2.2337      Z       1.0867
       Tot       2.5896
    Quadrupole Moments (Debye-Ang)
        XX     -38.2182     XY      -4.3909     YY     -44.9348
        XZ       1.3971     YZ       0.2547     ZZ     -42.3052

             Standard Nuclear Orientation (Angstroms)
    I     Atom           X                Y                Z
 ----------------------------------------------------------------
    1      C       1.5434760884     0.3858143662    -0.1753184021
    2      C       0.6693660864    -0.8625081413    -0.0379138367
    3      C      -0.5043027226    -0.4499525031    -0.9576563082
    4      C      -1.0965489010     0.3134439487     0.6396653382
    5      C      -0.5173978408     0.9939002290    -0.6010755935
    6      N       0.8727826079     1.4447284963    -0.4575641644
    7      H       2.6060839659     0.4219049182     0.0550351109
    8      H       1.1473966534    -1.8362532132    -0.1394733930
    9      H      -1.1132032332    -1.0316439148    -1.6356304807
   10      H      -2.0691905420     0.6006635492     1.0295884180
   11      H      -1.1801588377     1.6853956861    -1.1129971504
   12      C      -0.1937864422    -0.6066654359     1.1967551791
   13      H      -0.1890614072    -1.0851859466     2.1660495624
 ----------------------------------------------------------------

 Total job time:  7557.50s(wall), 28190.07s(cpu)
        *  Thank you very much for using Q-Chem.  Have a nice day.  *
