 Q-Chem 5.0, Q-Chem, Inc., Pleasanton, CA (2017)
 Q-Chem 5.0.2 for Intel X86 EM64T Linux

User input:
--------------------------------------------------------------
$molecule
0 2
C        1.5188731107    0.4265845352   -0.1304215167
C        0.6711528669   -0.8581953245   -0.0611550905
C       -0.2857587804   -0.4733424048   -1.1952985030
C       -1.0862928721    0.4165772456    0.7567081818
C       -0.5842708130    0.9023703352   -0.6135865516
N        0.8212158864    1.4525105299   -0.4359184148
H        2.5859780293    0.4828549821    0.0744824409
H        1.1978338096   -1.8116088804   -0.0880632137
H       -1.0475255999   -1.1467664840   -1.5826381289
H       -1.8890061097    0.8730616446    1.3232794843
H       -1.2220693287    1.5985979342   -1.1540818266
C       -0.3250772513   -0.6389045068    1.0975285494
H       -0.3550529479   -1.2237396064    2.0091645894
$end

$rem
method                b3lyp
basis                 6-31+g(d,p)
unrestricted          true
symmetry              off
sym_ignore            true
incdft                false
incfock               0
scf_convergence       8
thresh                14
jobtype               sp
scf_guess             core
scf_guess_mix         5
scf_algorithm         diis
max_scf_cycles        100
$end

--------------------------------------------------------------

             Standard Nuclear Orientation (Angstroms)
    I     Atom           X                Y                Z
 ----------------------------------------------------------------
    1      C       1.5188731107     0.4265845352    -0.1304215167
    2      C       0.6711528669    -0.8581953245    -0.0611550905
    3      C      -0.2857587804    -0.4733424048    -1.1952985030
    4      C      -1.0862928721     0.4165772456     0.7567081818
    5      C      -0.5842708130     0.9023703352    -0.6135865516
    6      N       0.8212158864     1.4525105299    -0.4359184148
    7      H       2.5859780293     0.4828549821     0.0744824409
    8      H       1.1978338096    -1.8116088804    -0.0880632137
    9      H      -1.0475255999    -1.1467664840    -1.5826381289
   10      H      -1.8890061097     0.8730616446     1.3232794843
   11      H      -1.2220693287     1.5985979342    -1.1540818266
   12      C      -0.3250772513    -0.6389045068     1.0975285494
   13      H      -0.3550529479    -1.2237396064     2.0091645894
 ----------------------------------------------------------------

   21    -286.8734931391      5.91E-09 Convergence criterion met
 Total energy in the final basis set = -286.87349314

                    Orbital Energies (a.u.)
 --------------------------------------------------------------

 Alpha MOs
 -- Occupied --
-14.337 -10.235 -10.231 -10.221 -10.216 -10.213 -10.209  -0.965
 -0.832  -0.737  -0.715  -0.589  -0.583  -0.539  -0.520  -0.481
 -0.429  -0.420  -0.391  -0.382  -0.358  -0.305  -0.283  -0.271
 -0.206

 Beta MOs
 -- Occupied --
-14.336 -10.235 -10.231 -10.221 -10.211 -10.208 -10.202  -0.961
 -0.827  -0.735  -0.700  -0.587  -0.571  -0.536  -0.517  -0.472
 -0.426  -0.416  -0.389  -0.379  -0.352  -0.298  -0.273  -0.268

          Ground-State Mulliken Net Atomic Charges

     Atom                 Charge (a.u.)    Spin (a.u.)
  --------------------------------------------------------
      1 C                    -0.092135      -0.031636
      2 C                     0.009551      -0.061315
      3 C                    -0.270662       1.034917
      4 C                    -0.147431       0.044939
      5 C                     0.024174      -0.089632
      6 N                    -0.203175       0.025933
      7 H                     0.137373      -0.000090
      8 H                     0.124762       0.003437
      9 H                     0.138860      -0.026237
     10 H                     0.138823       0.000695
     11 H                     0.129333       0.003590
     12 C                    -0.127845       0.095311
     13 H                     0.138372       0.000089
  --------------------------------------------------------
  Sum of atomic charges =     0.000000

                    Cartesian Multipole Moments
 -----------------------------------------------------------------
    Charge (ESU x 10^10)
                 0.0000
    Dipole Moment (Debye)
         X      -0.7360      Y      -2.2349      Z       1.0826
       Tot       2.5901
    Quadrupole Moments (Debye-Ang)
        XX     -38.2273     XY      -4.3955     YY     -44.9488
        XZ       1.4090     YZ       0.2331     ZZ     -42.2880

 Total job time:  29.00s(wall), 106.70s(cpu)
        *  Thank you very much for using Q-Chem.  Have a nice day.  *
