 Q-Chem 5.0, Q-Chem, Inc., Pleasanton, CA (2017)
 Q-Chem 5.0.2 for Intel X86 EM64T Linux

User input:
--------------------------------------------------------------
$molecule
0 2
C        1.5496462726    0.3496525271   -0.1427244368
C        0.6532827243   -0.8791157454   -0.0374520751
C       -0.6199106274   -0.4064444258   -0.8297216664
C       -1.1644394237    0.1430031707    0.5109342505
C       -0.4681685773    1.0529227793   -0.6025780963
N        0.9081933687    1.4306131125   -0.4105398952
H        2.6086821006    0.3597578582    0.1064054818
H        1.1110930083   -1.8548523534   -0.2086005971
H       -1.1482427887   -0.9240913608   -1.6236226767
H       -2.1766639571    0.3938210758    0.8094396983
H       -1.1273601757    1.7761446239   -1.0697503781
C       -0.1797244718   -0.6564017544    1.2228456146
H        0.0536125476   -0.7850095071    2.2753647762
$end

$rem
method                b3lyp
basis                 6-31+g(d,p)
unrestricted          true
symmetry              off
sym_ignore            true
incdft                false
incfock               0
scf_convergence       6
thresh                14
jobtype               sp
scf_guess             read
scf_algorithm         diis
max_scf_cycles        100
stability_analysis    true
max_cis_cycles        100
cis_n_roots           4
$end

--------------------------------------------------------------

             Standard Nuclear Orientation (Angstroms)
    I     Atom           X                Y                Z
 ----------------------------------------------------------------
    1      C       1.5496462726     0.3496525271    -0.1427244368
    2      C       0.6532827243    -0.8791157454    -0.0374520751
    3      C      -0.6199106274    -0.4064444258    -0.8297216664
    4      C      -1.1644394237     0.1430031707     0.5109342505
    5      C      -0.4681685773     1.0529227793    -0.6025780963
    6      N       0.9081933687     1.4306131125    -0.4105398952
    7      H       2.6086821006     0.3597578582     0.1064054818
    8      H       1.1110930083    -1.8548523534    -0.2086005971
    9      H      -1.1482427887    -0.9240913608    -1.6236226767
   10      H      -2.1766639571     0.3938210758     0.8094396983
   11      H      -1.1273601757     1.7761446239    -1.0697503781
   12      C      -0.1797244718    -0.6564017544     1.2228456146
   13      H       0.0536125476    -0.7850095071     2.2753647762
 ----------------------------------------------------------------

    2    -286.8593755044      1.09E-09 Convergence criterion met
 Total energy in the final basis set = -286.85937550

         TDDFT/TDA Excitation Energies
 ---------------------------------------------------

 Excited state   1: excitation energy (eV) =    3.4253
 Total energy for state  1:                  -286.73349780 au
    <S**2>     :  0.9277
    Trans. Mom.:  0.3594 X   0.1951 Y  -0.1554 Z
    Strength   :     0.0160577268
    S(  1) --> V(  1) amplitude =  0.9263 alpha
    D( 23) --> S(  1) amplitude =  0.3229 beta

 Excited state   2: excitation energy (eV) =    3.6329
 Total energy for state  2:                  -286.72586796 au
    <S**2>     :  1.2381
    Trans. Mom.:  0.0416 X  -0.0579 Y  -0.0526 Z
    Strength   :     0.0006982826
    D( 24) --> V(  1) amplitude = -0.2670 alpha
    D( 24) --> S(  1) amplitude =  0.9223 beta
    D( 24) --> V(  1) amplitude =  0.1534 beta

 Excited state   3: excitation energy (eV) =    4.1488
 Total energy for state  3:                  -286.70691131 au
    <S**2>     :  0.9434
    Trans. Mom.: -0.2838 X  -0.2942 Y   0.3075 Z
    Strength   :     0.0265958597
    S(  1) --> V(  1) amplitude = -0.3314 alpha
    D( 23) --> S(  1) amplitude =  0.8892 beta
    D( 23) --> V(  1) amplitude =  0.1779 beta

 Excited state   4: excitation energy (eV) =    4.2969
 Total energy for state  4:                  -286.70146753 au
    <S**2>     :  0.8078
    Trans. Mom.:  0.0929 X   0.1028 Y   0.0775 Z
    Strength   :     0.0026529797
    S(  1) --> V(  2) amplitude =  0.9829 alpha

 ---------------------------------------------------

                    Orbital Energies (a.u.)
 --------------------------------------------------------------

 Alpha MOs
 -- Occupied --
-14.334 -10.234 -10.230 -10.220 -10.219 -10.219 -10.216  -0.979
 -0.867  -0.759  -0.674  -0.616  -0.580  -0.544  -0.524  -0.475
 -0.448  -0.415  -0.410  -0.366  -0.346  -0.309  -0.285  -0.267
 -0.188

 Beta MOs
 -- Occupied --
-14.333 -10.232 -10.229 -10.221 -10.220 -10.217 -10.204  -0.975
 -0.861  -0.751  -0.662  -0.611  -0.576  -0.537  -0.518  -0.469
 -0.444  -0.412  -0.404  -0.358  -0.342  -0.302  -0.274  -0.262

          Ground-State Mulliken Net Atomic Charges

     Atom                 Charge (a.u.)    Spin (a.u.)
  --------------------------------------------------------
      1 C                    -0.051057       0.053956
      2 C                    -0.027988      -0.115576
      3 C                    -0.061441       0.087313
      4 C                    -0.054085      -0.154997
      5 C                    -0.291670       0.103792
      6 N                    -0.171278       0.035488
      7 H                     0.131168       0.001040
      8 H                     0.133697       0.023535
      9 H                     0.133346       0.000305
     10 H                     0.138595       0.005188
     11 H                     0.144214       0.003555
     12 C                    -0.154368       0.979482
     13 H                     0.130867      -0.023081
  --------------------------------------------------------
  Sum of atomic charges =    -0.000000

                    Cartesian Multipole Moments
 -----------------------------------------------------------------
    Charge (ESU x 10^10)
                 0.0000
    Dipole Moment (Debye)
         X      -0.9714      Y      -2.0838      Z       0.0494
       Tot       2.2996
    Quadrupole Moments (Debye-Ang)
        XX     -38.3172     XY      -4.9305     YY     -46.0111
        XZ       2.0078     YZ       0.9658     ZZ     -40.7348

 Total job time:  198.70s(wall), 194.58s(cpu)
        *  Thank you very much for using Q-Chem.  Have a nice day.  *
