 Q-Chem 5.0, Q-Chem, Inc., Pleasanton, CA (2017)
 Q-Chem 5.0.2 for Intel X86 EM64T Linux

User input:
--------------------------------------------------------------
$molecule
0 2
C        1.3119832026    0.3024639842    0.2418450666
C        0.6067813895   -1.0007324541   -0.1827277502
C       -0.6879962090   -0.4652710104   -0.8442673523
C       -1.0782594737    0.1910344549    0.4506508298
C       -0.5191779217    1.0594042307   -0.6924931429
N        0.8290508102    1.4231658196   -0.4713972156
H        2.3485696173    0.2892655803    0.5603271076
H        1.1221951757   -1.9351789616   -0.3745474573
H       -1.2950975532   -0.9364177124   -1.6091722851
H       -2.0524462795    0.3360300536    0.9040256583
H       -1.1654104444    1.7420801816   -1.2331782201
C        0.2167898071   -0.3445443101    1.1121710373
H        0.3630178796   -0.6612998559    2.1387637239
****
C        1.6826639957    0.4587517851   -0.3388208191
C        1.1426541297   -0.8355850335   -0.4014207173
C       -0.3451988663   -0.7180555635   -0.4479183011
C       -1.2132615046    0.6460366786    0.9261439568
C       -0.5154693824    0.8524799125   -0.4186001268
N        0.8090475693    1.4602868925   -0.3452726768
H        2.7465375068    0.6792139602   -0.2624248615
H        1.7108777815   -1.7590006059   -0.3762547155
H       -0.8308330116   -1.2905003643   -1.2490750641
H       -1.6205757454    1.3568447222    1.6388084617
H       -1.1184561669    1.3185197273   -1.2075236798
C       -1.0834543536   -0.6848535522    0.9007236441
H       -1.3645319524   -1.4841385590    1.5816348993
$end

$rem
method                b3lyp
basis                 6-31g(d)
unrestricted          true
symmetry              off
sym_ignore            true
incdft                false
incfock               0
scf_convergence       8
thresh                14
jobtype               fsm
scf_guess             core
scf_guess_mix         5
scf_algorithm         diis
max_scf_cycles        100
fsm_nnode             21
fsm_ngrad             6
fsm_mode              2
fsm_opt_mode          2
$end

--------------------------------------------------------------

   20    -286.8249557164      5.82E-09 Convergence criterion met
 Total energy in the final basis set = -286.82495572
   22    -286.8755022237      8.42E-09 Convergence criterion met
 Total energy in the final basis set = -286.87550222
   21    -286.8197099225      7.49E-09 Convergence criterion met
 Total energy in the final basis set = -286.81970992
   21    -286.8195029272      5.30E-09 Convergence criterion met
 Total energy in the final basis set = -286.81950293
   21    -286.8223403445      7.54E-09 Convergence criterion met
 Total energy in the final basis set = -286.82234034
   21    -286.8732691854      7.39E-09 Convergence criterion met
 Total energy in the final basis set = -286.87326919
   21    -286.8726376752      8.30E-09 Convergence criterion met
 Total energy in the final basis set = -286.87263768
   21    -286.8719241447      9.30E-09 Convergence criterion met
 Total energy in the final basis set = -286.78887396
   23    -286.7901393013      5.95E-09 Convergence criterion met
 Total energy in the final basis set = -286.79013930
   23    -286.7890624772      6.50E-09 Convergence criterion met
 Total energy in the final basis set = -286.78906248
   23    -286.7899607219      6.27E-09 Convergence criterion met
 Total energy in the final basis set = -286.78996072
   23    -286.7893602442      6.00E-09 Convergence criterion met
 Total energy in the final basis set = -286.78936024
   23    -286.7896829866      6.74E-09 Convergence criterion met
 Total energy in the final basis set = -286.78968299
   23    -286.7896115238      5.65E-09 Convergence criterion met
 Total energy in the final basis set = -286.78961152
   23    -286.7894533031      7.10E-09 Convergence criterion met
 Total energy in the final basis set = -286.78945330

                    Orbital Energies (a.u.)
 --------------------------------------------------------------

 Alpha MOs
 -- Occupied --
-14.314 -10.226 -10.224 -10.223 -10.217 -10.216 -10.195  -0.960
 -0.839  -0.738  -0.680  -0.593  -0.579  -0.537  -0.519  -0.457
 -0.428  -0.409  -0.396  -0.384  -0.320  -0.305  -0.266  -0.260
 -0.114

 Beta MOs
 -- Occupied --
-14.313 -10.226 -10.225 -10.217 -10.217 -10.216 -10.183  -0.956
 -0.831  -0.735  -0.668  -0.586  -0.573  -0.531  -0.514  -0.450
 -0.426  -0.405  -0.392  -0.381  -0.311  -0.292  -0.257  -0.254

          Ground-State Mulliken Net Atomic Charges

     Atom                 Charge (a.u.)    Spin (a.u.)
  --------------------------------------------------------
      1 C                     0.086616       0.036027
      2 C                    -0.232573      -0.056675
      3 C                    -0.113048       0.386101
      4 C                    -0.145964      -0.137694
      5 C                    -0.015498      -0.002870
      6 N                    -0.345024       0.030213
      7 H                     0.147723       0.000986
      8 H                     0.138870       0.006490
      9 H                     0.162246      -0.016011
     10 H                     0.164461       0.004049
     11 H                     0.149774       0.003305
     12 C                    -0.141153       0.780042
     13 H                     0.143570      -0.033963
  --------------------------------------------------------
  Sum of atomic charges =     0.000000

                    Cartesian Multipole Moments
 -----------------------------------------------------------------
    Charge (ESU x 10^10)
                 0.0000
    Dipole Moment (Debye)
         X      -1.1396      Y      -2.0360      Z      -0.0602
       Tot       2.3340
    Quadrupole Moments (Debye-Ang)
        XX     -37.1819     XY      -4.1915     YY     -43.6074
        XZ       0.9249     YZ       1.1714     ZZ     -40.3216

             Standard Nuclear Orientation (Angstroms)
    I     Atom           X                Y                Z
 ----------------------------------------------------------------
    1      C       1.5442928244     0.4182702513    -0.1861778306
    2      C       0.7285457093    -0.8543273971    -0.1156981920
    3      C      -0.5250231054    -0.4891610274    -0.8526452250
    4      C      -1.1129416971     0.3505158839     0.6351322477
    5      C      -0.5118740168     0.9805378851    -0.6255407720
    6      N       0.8426807681     1.4693320598    -0.4542173349
    7      H       2.5660942257     0.4919781108     0.1747624510
    8      H       1.2649758466    -1.8037079492    -0.2657202140
    9      H      -1.1393536475    -1.1234533007    -1.4743969711
   10      H      -1.9274314557     0.8584071183     1.1586384540
   11      H      -1.1708011866     1.5941976996    -1.2401369079
   12      C      -0.2473912009    -0.6483063033     1.1718393897
   13      H      -0.3363175888    -1.2706409922     2.0436251848
 ----------------------------------------------------------------

 Total job time:  1577.29s(wall), 4653.08s(cpu)
        *  Thank you very much for using Q-Chem.  Have a nice day.  *
