 Q-Chem 5.0, Q-Chem, Inc., Pleasanton, CA (2017)
 Q-Chem 5.0.2 for Intel X86 EM64T Linux

User input:
--------------------------------------------------------------
$molecule
0 2
C        1.6831453044    0.4587545760   -0.3392167030
C        1.1429896624   -0.8354919986   -0.4011608657
C       -0.3449165255   -0.7180911835   -0.4471978002
C       -1.2134761665    0.6460818054    0.9263898064
C       -0.5153496924    0.8525959529   -0.4181831336
N        0.8093529570    1.4601711812   -0.3450224016
H        2.7471040179    0.6792975566   -0.2637081979
H        1.7113625920   -1.7587928270   -0.3767725623
H       -0.8308086369   -1.2903499545   -1.2483563531
H       -1.6214309565    1.3566951813    1.6388101066
H       -1.1181864428    1.3182111313   -1.2075476608
C       -1.0839680141   -0.6847866488    0.9007669795
H       -1.3658180991   -1.4842947723    1.5811987857
$end

$rem
method                b3lyp
basis                 6-31g(d)
unrestricted          true
symmetry              off
sym_ignore            true
incdft                false
incfock               0
scf_convergence       8
thresh                14
jobtype               opt
scf_guess             core
scf_guess_mix         5
scf_algorithm         diis
max_scf_cycles        100
geom_opt_max_cycles   300
$end

--------------------------------------------------------------

   22    -286.8755017777      8.42E-09 Convergence criterion met
 Total energy in the final basis set = -286.87550178

             Standard Nuclear Orientation (Angstroms)
    I     Atom           X                Y                Z
 ----------------------------------------------------------------
    1      C       1.6826639957     0.4587517851    -0.3388208191
    2      C       1.1426541297    -0.8355850335    -0.4014207173
    3      C      -0.3451988663    -0.7180555635    -0.4479183011
    4      C      -1.2132615046     0.6460366786     0.9261439568
    5      C      -0.5154693824     0.8524799125    -0.4186001268
    6      N       0.8090475693     1.4602868925    -0.3452726768
    7      H       2.7465375068     0.6792139602    -0.2624248615
    8      H       1.7108777815    -1.7590006059    -0.3762547155
    9      H      -0.8308330116    -1.2905003643    -1.2490750641
   10      H      -1.6205757454     1.3568447222     1.6388084617
   11      H      -1.1184561669     1.3185197273    -1.2075236798
   12      C      -1.0834543536    -0.6848535522     0.9007236441
   13      H      -1.3645319524    -1.4841385590     1.5816348993
 ----------------------------------------------------------------

   16    -286.8755022240      5.72E-09 Convergence criterion met
 Total energy in the final basis set = -286.87550222
 Final energy is   -286.875502224021
 **  OPTIMIZATION CONVERGED  **

                    Orbital Energies (a.u.)
 --------------------------------------------------------------

 Alpha MOs
 -- Occupied --
-14.328 -10.217 -10.216 -10.207 -10.202 -10.200 -10.195  -0.944
 -0.837  -0.752  -0.665  -0.618  -0.554  -0.523  -0.515  -0.481
 -0.428  -0.403  -0.386  -0.355  -0.341  -0.322  -0.270  -0.253
 -0.203

 Beta MOs
 -- Occupied --
-14.318 -10.219 -10.218 -10.203 -10.199 -10.198 -10.194  -0.932
 -0.831  -0.734  -0.665  -0.610  -0.549  -0.520  -0.512  -0.475
 -0.420  -0.396  -0.381  -0.343  -0.334  -0.301  -0.264  -0.246

          Ground-State Mulliken Net Atomic Charges

     Atom                 Charge (a.u.)    Spin (a.u.)
  --------------------------------------------------------
      1 C                     0.048129      -0.230788
      2 C                    -0.114785       0.693626
      3 C                    -0.193661      -0.054004
      4 C                    -0.075979       0.032142
      5 C                    -0.061717      -0.027697
      6 N                    -0.351421       0.516726
      7 H                     0.140579       0.007435
      8 H                     0.143375      -0.032163
      9 H                     0.148133       0.025252
     10 H                     0.137362       0.003601
     11 H                     0.151505       0.025310
     12 C                    -0.104865       0.033691
     13 H                     0.133343       0.006870
  --------------------------------------------------------
  Sum of atomic charges =     0.000000

                    Cartesian Multipole Moments
 -----------------------------------------------------------------
    Charge (ESU x 10^10)
                 0.0000
    Dipole Moment (Debye)
         X      -0.4740      Y      -2.0989      Z       0.0937
       Tot       2.1538
    Quadrupole Moments (Debye-Ang)
        XX     -37.9720     XY      -2.8388     YY     -42.5406
        XZ      -0.4530     YZ       0.6487     ZZ     -39.8953

 Total job time:  39.38s(wall), 113.19s(cpu)
        *  Thank you very much for using Q-Chem.  Have a nice day.  *
