 Q-Chem 5.0, Q-Chem, Inc., Pleasanton, CA (2017)
 Q-Chem 5.0.2 for Intel X86 EM64T Linux

User input:
--------------------------------------------------------------
$molecule
0 2
C        1.5442928244    0.4182702513   -0.1861778306
C        0.7285457093   -0.8543273971   -0.1156981920
C       -0.5250231054   -0.4891610274   -0.8526452250
C       -1.1129416971    0.3505158839    0.6351322477
C       -0.5118740168    0.9805378851   -0.6255407720
N        0.8426807681    1.4693320598   -0.4542173349
H        2.5660942257    0.4919781108    0.1747624510
H        1.2649758466   -1.8037079492   -0.2657202140
H       -1.1393536475   -1.1234533007   -1.4743969711
H       -1.9274314557    0.8584071183    1.1586384540
H       -1.1708011866    1.5941976996   -1.2401369079
C       -0.2473912009   -0.6483063033    1.1718393897
H       -0.3363175888   -1.2706409922    2.0436251848
$end

$rem
method                b3lyp
basis                 6-31g(d)
unrestricted          true
symmetry              off
sym_ignore            true
incdft                false
incfock               0
scf_convergence       8
thresh                14
jobtype               freq
scf_guess             read
scf_algorithm         diis
max_scf_cycles        100
$end

--------------------------------------------------------------

             Standard Nuclear Orientation (Angstroms)
    I     Atom           X                Y                Z
 ----------------------------------------------------------------
    1      C       1.5442928244     0.4182702513    -0.1861778306
    2      C       0.7285457093    -0.8543273971    -0.1156981920
    3      C      -0.5250231054    -0.4891610274    -0.8526452250
    4      C      -1.1129416971     0.3505158839     0.6351322477
    5      C      -0.5118740168     0.9805378851    -0.6255407720
    6      N       0.8426807681     1.4693320598    -0.4542173349
    7      H       2.5660942257     0.4919781108     0.1747624510
    8      H       1.2649758466    -1.8037079492    -0.2657202140
    9      H      -1.1393536475    -1.1234533007    -1.4743969711
   10      H      -1.9274314557     0.8584071183     1.1586384540
   11      H      -1.1708011866     1.5941976996    -1.2401369079
   12      C      -0.2473912009    -0.6483063033     1.1718393897
   13      H      -0.3363175888    -1.2706409922     2.0436251848
 ----------------------------------------------------------------

    2    -286.8028480842      3.31E-09 Convergence criterion met
 Total energy in the final basis set = -286.80284808

                    Orbital Energies (a.u.)
 --------------------------------------------------------------

 Alpha MOs
 -- Occupied --
-14.314 -10.225 -10.222 -10.219 -10.217 -10.213 -10.195  -0.962
 -0.840  -0.739  -0.682  -0.592  -0.579  -0.538  -0.518  -0.459
 -0.430  -0.410  -0.396  -0.381  -0.324  -0.304  -0.266  -0.262
 -0.123

 Beta MOs
 -- Occupied --
-14.313 -10.225 -10.224 -10.217 -10.213 -10.211 -10.184  -0.958
 -0.831  -0.736  -0.670  -0.586  -0.572  -0.532  -0.514  -0.451
 -0.428  -0.405  -0.393  -0.377  -0.317  -0.290  -0.258  -0.255

          Ground-State Mulliken Net Atomic Charges

     Atom                 Charge (a.u.)    Spin (a.u.)
  --------------------------------------------------------
      1 C                     0.088643       0.033002
      2 C                    -0.242873      -0.059737
      3 C                    -0.114971       0.430836
      4 C                    -0.147695      -0.161806
      5 C                    -0.017169      -0.000224
      6 N                    -0.343873       0.034242
      7 H                     0.145226       0.000685
      8 H                     0.139246       0.007534
      9 H                     0.160850      -0.018530
     10 H                     0.159500       0.005925
     11 H                     0.149099       0.003710
     12 C                    -0.120404       0.758153
     13 H                     0.144423      -0.033790
  --------------------------------------------------------
  Sum of atomic charges =     0.000000

                    Cartesian Multipole Moments
 -----------------------------------------------------------------
    Charge (ESU x 10^10)
                 0.0000
    Dipole Moment (Debye)
         X      -1.1495      Y      -2.0935      Z       0.0283
       Tot       2.3885
    Quadrupole Moments (Debye-Ang)
        XX     -37.3358     XY      -4.1966     YY     -43.5679
        XZ       1.0341     YZ       0.9670     ZZ     -40.2273

 Frequency:      -720.39                -423.33                 415.47
 Force Cnst:      1.3173                 0.1363                 0.3903
 Red. Mass:       4.3084                 1.2913                 3.8373
 IR Intens:       63.065                  9.555                  1.119
 Frequency:       438.45                 514.59                 620.40
 Force Cnst:      0.2013                 0.3196                 0.6938
 Red. Mass:       1.7777                 2.0482                 3.0592
 IR Intens:       12.009                  8.908                 14.744
 Frequency:       699.37                 750.64                 790.06
 Force Cnst:      1.4352                 1.9084                 1.7412
 Red. Mass:       4.9803                 5.7485                 4.7346
 IR Intens:        2.098                  2.834                  5.675
 Frequency:       843.50                 870.78                 887.28
 Force Cnst:      1.2371                 1.3340                 0.6454
 Red. Mass:       2.9510                 2.9861                 1.3914
 IR Intens:        1.372                 29.619                 26.762
 Frequency:       892.76                 945.83                 962.03
 Force Cnst:      0.7775                 0.9549                 0.8531
 Red. Mass:       1.6558                 1.8117                 1.5645
 IR Intens:        7.698                  6.318                  2.181
 Frequency:       981.04                1042.23                1065.43
 Force Cnst:      0.9238                 1.1916                 1.6130
 Red. Mass:       1.6292                 1.8619                 2.4117
 IR Intens:        2.767                  8.441                  1.947
 Frequency:      1118.17                1147.55                1204.21
 Force Cnst:      1.1583                 1.4354                 1.1633
 Red. Mass:       1.5724                 1.8500                 1.3616
 IR Intens:       15.139                  7.481                  0.889
 Frequency:      1269.84                1311.34                1315.92
 Force Cnst:      1.4963                 1.7054                 2.0070
 Red. Mass:       1.5749                 1.6833                 1.9671
 IR Intens:        4.645                  9.865                  3.629
 Frequency:      1328.39                1370.94                1607.76
 Force Cnst:      1.7000                 2.1128                 9.9836
 Red. Mass:       1.6351                 1.9079                 6.5553
 IR Intens:       15.265                  1.759                 39.617
 Frequency:      3063.15                3141.82                3162.20
 Force Cnst:      6.0323                 6.3444                 6.4285
 Red. Mass:       1.0912                 1.0909                 1.0911
 IR Intens:       19.867                  3.448                 25.422
 Frequency:      3213.64                3276.50                3325.26
 Force Cnst:      6.6500                 6.9217                 7.1301
 Red. Mass:       1.0929                 1.0943                 1.0944
 IR Intens:       19.406                  0.485                  0.887

 STANDARD THERMODYNAMIC QUANTITIES AT   298.15 K  AND     1.00 ATM

   This Molecule has  2 Imaginary Frequencies
   Zero point vibrational energy:       62.296 kcal/mol

   Atom    1 Element C  Has Mass   12.00000
   Atom    2 Element C  Has Mass   12.00000
   Atom    3 Element C  Has Mass   12.00000
   Atom    4 Element C  Has Mass   12.00000
   Atom    5 Element C  Has Mass   12.00000
   Atom    6 Element N  Has Mass   14.00307
   Atom    7 Element H  Has Mass    1.00783
   Atom    8 Element H  Has Mass    1.00783
   Atom    9 Element H  Has Mass    1.00783
   Atom   10 Element H  Has Mass    1.00783
   Atom   11 Element H  Has Mass    1.00783
   Atom   12 Element C  Has Mass   12.00000
   Atom   13 Element H  Has Mass    1.00783
   Molecular Mass:    92.050050 amu
   Principal axes and moments of inertia in amu*Bohr^2:
                             1           2           3
    Eigenvalues --      372.28450   458.70595   575.07503
          X               0.73680    -0.65838     0.15380
          Y               0.54005     0.70997     0.45199
          Z              -0.40677    -0.24996     0.87867
   Rotational Symmetry Number is   1
   The Molecule is an Asymmetric Top
   Translational Enthalpy:        0.889 kcal/mol
   Rotational Enthalpy:           0.889 kcal/mol
   Vibrational Enthalpy:         63.401 kcal/mol
   gas constant (RT):             0.592 kcal/mol
   Translational Entropy:        39.471  cal/mol.K
   Rotational Entropy:           26.088  cal/mol.K
   Vibrational Entropy:           4.935  cal/mol.K

   Total Enthalpy:               65.771 kcal/mol
   Total Entropy:                70.493  cal/mol.K

 Total job time:  267.56s(wall), 260.83s(cpu)
        *  Thank you very much for using Q-Chem.  Have a nice day.  *
