 Q-Chem 5.0, Q-Chem, Inc., Pleasanton, CA (2017)
 Q-Chem 5.0.2 for Intel X86 EM64T Linux

User input:
--------------------------------------------------------------
$molecule
0 2
C        1.5398761790    0.3852238667   -0.1724696979
C        0.6669202501   -0.8652302544   -0.0424861583
C       -0.4983697281   -0.4482166394   -0.9673938242
C       -1.0980725063    0.3080255447    0.6362327750
C       -0.5160688272    0.9934617569   -0.5994030073
N        0.8736458510    1.4463525825   -0.4493701622
H        2.6024045254    0.4194068431    0.0629829749
H        1.1457317946   -1.8391615549   -0.1473633886
H       -1.1194472671   -1.0329678674   -1.6312876832
H       -2.0707355557    0.5975034759    1.0271046751
H       -1.1776573678    1.6872203521   -1.1119894888
C       -0.2001174052   -0.6151477720    1.1902834726
H       -0.1726544674   -1.0628282949    2.1746237925
$end

$rem
method                b3lyp
basis                 6-31g(d)
unrestricted          true
symmetry              off
sym_ignore            true
incdft                false
incfock               0
scf_convergence       6
thresh                14
jobtype               sp
scf_guess             read
scf_algorithm         diis
max_scf_cycles        100
stability_analysis    true
max_cis_cycles        100
cis_n_roots           4
$end

--------------------------------------------------------------

             Standard Nuclear Orientation (Angstroms)
    I     Atom           X                Y                Z
 ----------------------------------------------------------------
    1      C       1.5398761790     0.3852238667    -0.1724696979
    2      C       0.6669202501    -0.8652302544    -0.0424861583
    3      C      -0.4983697281    -0.4482166394    -0.9673938242
    4      C      -1.0980725063     0.3080255447     0.6362327750
    5      C      -0.5160688272     0.9934617569    -0.5994030073
    6      N       0.8736458510     1.4463525825    -0.4493701622
    7      H       2.6024045254     0.4194068431     0.0629829749
    8      H       1.1457317946    -1.8391615549    -0.1473633886
    9      H      -1.1194472671    -1.0329678674    -1.6312876832
   10      H      -2.0707355557     0.5975034759     1.0271046751
   11      H      -1.1776573678     1.6872203521    -1.1119894888
   12      C      -0.2001174052    -0.6151477720     1.1902834726
   13      H      -0.1726544674    -1.0628282949     2.1746237925
 ----------------------------------------------------------------

    2    -286.8245545390      1.62E-09 Convergence criterion met
 Total energy in the final basis set = -286.82455454

         TDDFT/TDA Excitation Energies
 ---------------------------------------------------

 Excited state   1: excitation energy (eV) =    2.7827
 Total energy for state  1:                  -286.72229087 au
    <S**2>     :  0.7827
    Trans. Mom.:  0.2565 X   0.1401 Y   0.2717 Z
    Strength   :     0.0108582707
    S(  1) --> V(  1) amplitude =  0.8139 alpha
    S(  1) --> V(  2) amplitude = -0.5049 alpha
    D( 24) --> S(  1) amplitude = -0.1951 beta

 Excited state   2: excitation energy (eV) =    3.0701
 Total energy for state  2:                  -286.71173134 au
    <S**2>     :  0.8070
    Trans. Mom.:  0.3157 X   0.1877 Y  -0.2452 Z
    Strength   :     0.0146685588
    S(  1) --> V(  1) amplitude =  0.5487 alpha
    S(  1) --> V(  2) amplitude =  0.7902 alpha
    D( 24) --> S(  1) amplitude =  0.2215 beta

 Excited state   3: excitation energy (eV) =    4.4645
 Total energy for state  3:                  -286.66048678 au
    <S**2>     :  1.8441
    Trans. Mom.: -0.0959 X  -0.1542 Y   0.0314 Z
    Strength   :     0.0037134025
    D( 22) --> V(  1) amplitude = -0.1854 alpha
    D( 23) --> V(  1) amplitude = -0.3531 alpha
    D( 24) --> V(  1) amplitude = -0.1889 alpha
    D( 22) --> S(  1) amplitude =  0.2888 beta
    D( 22) --> V(  1) amplitude =  0.1686 beta
    D( 23) --> S(  1) amplitude =  0.6743 beta
    D( 23) --> V(  1) amplitude =  0.2430 beta
    D( 24) --> S(  1) amplitude =  0.2674 beta

 Excited state   4: excitation energy (eV) =    4.5326
 Total energy for state  4:                  -286.65798284 au
    <S**2>     :  1.5779
    Trans. Mom.: -0.0422 X  -0.0842 Y   0.2897 Z
    Strength   :     0.0103036454
    D( 22) --> V(  1) amplitude =  0.1763 alpha
    D( 23) --> V(  1) amplitude =  0.1946 alpha
    D( 24) --> V(  1) amplitude = -0.1862 alpha
    S(  1) --> V(  2) amplitude = -0.1702 alpha
    D( 22) --> S(  1) amplitude = -0.4206 beta
    D( 22) --> V(  1) amplitude = -0.2127 beta
    D( 24) --> S(  1) amplitude =  0.7251 beta
    D( 24) --> V(  1) amplitude =  0.2442 beta

 ---------------------------------------------------

                    Orbital Energies (a.u.)
 --------------------------------------------------------------

 Alpha MOs
 -- Occupied --
-14.314 -10.224 -10.218 -10.216 -10.212 -10.209 -10.193  -0.959
 -0.836  -0.739  -0.685  -0.590  -0.575  -0.538  -0.513  -0.461
 -0.433  -0.414  -0.398  -0.367  -0.345  -0.284  -0.271  -0.264
 -0.145

 Beta MOs
 -- Occupied --
-14.313 -10.224 -10.219 -10.218 -10.210 -10.204 -10.184  -0.955
 -0.828  -0.735  -0.673  -0.586  -0.566  -0.531  -0.510  -0.453
 -0.429  -0.408  -0.396  -0.362  -0.340  -0.274  -0.261  -0.251

          Ground-State Mulliken Net Atomic Charges

     Atom                 Charge (a.u.)    Spin (a.u.)
  --------------------------------------------------------
      1 C                     0.091781       0.008854
      2 C                    -0.259204      -0.069100
      3 C                    -0.128158       0.570023
      4 C                    -0.132218      -0.216095
      5 C                    -0.028451       0.004394
      6 N                    -0.338622       0.064058
      7 H                     0.143589       0.001571
      8 H                     0.137713       0.010588
      9 H                     0.158578      -0.027903
     10 H                     0.147918       0.011883
     11 H                     0.146717       0.004309
     12 C                    -0.081566       0.664151
     13 H                     0.141922      -0.026734
  --------------------------------------------------------
  Sum of atomic charges =     0.000000

                    Cartesian Multipole Moments
 -----------------------------------------------------------------
    Charge (ESU x 10^10)
                 0.0000
    Dipole Moment (Debye)
         X      -1.1291      Y      -2.0818      Z       0.2753
       Tot       2.3842
    Quadrupole Moments (Debye-Ang)
        XX     -37.1742     XY      -4.2255     YY     -43.9573
        XZ       1.4277     YZ       0.6820     ZZ     -39.8425

 Total job time:  86.80s(wall), 82.41s(cpu)
        *  Thank you very much for using Q-Chem.  Have a nice day.  *
