 Q-Chem 5.0, Q-Chem, Inc., Pleasanton, CA (2017)
 Q-Chem 5.0.2 for Intel X86 EM64T Linux

User input:
--------------------------------------------------------------
$molecule
0 2
C        1.5398761790    0.3852238667   -0.1724696979
C        0.6669202501   -0.8652302544   -0.0424861583
C       -0.4983697281   -0.4482166394   -0.9673938242
C       -1.0980725063    0.3080255447    0.6362327750
C       -0.5160688272    0.9934617569   -0.5994030073
N        0.8736458510    1.4463525825   -0.4493701622
H        2.6024045254    0.4194068431    0.0629829749
H        1.1457317946   -1.8391615549   -0.1473633886
H       -1.1194472671   -1.0329678674   -1.6312876832
H       -2.0707355557    0.5975034759    1.0271046751
H       -1.1776573678    1.6872203521   -1.1119894888
C       -0.2001174052   -0.6151477720    1.1902834726
H       -0.1726544674   -1.0628282949    2.1746237925
$end

$rem
method                b3lyp
basis                 6-31+g(d,p)
unrestricted          true
symmetry              off
sym_ignore            true
incdft                false
incfock               0
scf_convergence       6
thresh                14
jobtype               sp
scf_guess             read
scf_algorithm         diis
max_scf_cycles        100
stability_analysis    true
max_cis_cycles        100
cis_n_roots           4
$end

--------------------------------------------------------------

             Standard Nuclear Orientation (Angstroms)
    I     Atom           X                Y                Z
 ----------------------------------------------------------------
    1      C       1.5398761790     0.3852238667    -0.1724696979
    2      C       0.6669202501    -0.8652302544    -0.0424861583
    3      C      -0.4983697281    -0.4482166394    -0.9673938242
    4      C      -1.0980725063     0.3080255447     0.6362327750
    5      C      -0.5160688272     0.9934617569    -0.5994030073
    6      N       0.8736458510     1.4463525825    -0.4493701622
    7      H       2.6024045254     0.4194068431     0.0629829749
    8      H       1.1457317946    -1.8391615549    -0.1473633886
    9      H      -1.1194472671    -1.0329678674    -1.6312876832
   10      H      -2.0707355557     0.5975034759     1.0271046751
   11      H      -1.1776573678     1.6872203521    -1.1119894888
   12      C      -0.2001174052    -0.6151477720     1.1902834726
   13      H      -0.1726544674    -1.0628282949     2.1746237925
 ----------------------------------------------------------------

    2    -286.8475784521      2.80E-09 Convergence criterion met
 Total energy in the final basis set = -286.84757845

         TDDFT/TDA Excitation Energies
 ---------------------------------------------------

 Excited state   1: excitation energy (eV) =    2.5767
 Total energy for state  1:                  -286.75288614 au
    <S**2>     :  0.7764
    Trans. Mom.:  0.2473 X   0.1114 Y   0.3710 Z
    Strength   :     0.0133322319
    S(  1) --> V(  1) amplitude =  0.8824 alpha
    S(  1) --> V(  2) amplitude =  0.3716 alpha
    D( 24) --> S(  1) amplitude = -0.1849 beta

 Excited state   2: excitation energy (eV) =    2.8644
 Total energy for state  2:                  -286.74231189 au
    <S**2>     :  0.8000
    Trans. Mom.: -0.4093 X  -0.2296 Y   0.2482 Z
    Strength   :     0.0197814497
    S(  1) --> V(  1) amplitude = -0.4160 alpha
    S(  1) --> V(  2) amplitude =  0.8720 alpha
    D( 24) --> S(  1) amplitude = -0.1587 beta

 Excited state   3: excitation energy (eV) =    3.4085
 Total energy for state  3:                  -286.72231856 au
    <S**2>     :  0.7861
    Trans. Mom.: -0.0176 X   0.1092 Y   0.2595 Z
    Strength   :     0.0066464766
    S(  1) --> V(  3) amplitude =  0.9858 alpha

 Excited state   4: excitation energy (eV) =    3.9480
 Total energy for state  4:                  -286.70249244 au
    <S**2>     :  0.7901
    Trans. Mom.:  0.1973 X  -0.0928 Y   0.1520 Z
    Strength   :     0.0068299417
    S(  1) --> V(  4) amplitude =  0.9814 alpha

 ---------------------------------------------------

                    Orbital Energies (a.u.)
 --------------------------------------------------------------

 Alpha MOs
 -- Occupied --
-14.330 -10.235 -10.230 -10.228 -10.226 -10.221 -10.207  -0.973
 -0.850  -0.750  -0.696  -0.601  -0.585  -0.547  -0.522  -0.473
 -0.444  -0.425  -0.408  -0.378  -0.356  -0.296  -0.284  -0.278
 -0.158

 Beta MOs
 -- Occupied --
-14.329 -10.235 -10.231 -10.230 -10.222 -10.217 -10.197  -0.969
 -0.842  -0.747  -0.684  -0.597  -0.577  -0.541  -0.519  -0.464
 -0.441  -0.419  -0.406  -0.373  -0.351  -0.287  -0.275  -0.265

          Ground-State Mulliken Net Atomic Charges

     Atom                 Charge (a.u.)    Spin (a.u.)
  --------------------------------------------------------
      1 C                    -0.070325      -0.001692
      2 C                     0.005671      -0.102151
      3 C                    -0.200104       0.600334
      4 C                    -0.099295      -0.236727
      5 C                    -0.136301      -0.018743
      6 N                    -0.178808       0.062276
      7 H                     0.132192       0.001589
      8 H                     0.129512       0.011083
      9 H                     0.147001      -0.025690
     10 H                     0.138928       0.010793
     11 H                     0.138630       0.004605
     12 C                    -0.145695       0.720855
     13 H                     0.138594      -0.026530
  --------------------------------------------------------
  Sum of atomic charges =     0.000000

                    Cartesian Multipole Moments
 -----------------------------------------------------------------
    Charge (ESU x 10^10)
                 0.0000
    Dipole Moment (Debye)
         X      -1.2054      Y      -2.2656      Z       0.2667
       Tot       2.5802
    Quadrupole Moments (Debye-Ang)
        XX     -38.2199     XY      -4.9033     YY     -45.5322
        XZ       1.5245     YZ       0.6836     ZZ     -41.6396

 Total job time:  193.98s(wall), 183.03s(cpu)
        *  Thank you very much for using Q-Chem.  Have a nice day.  *
