 Q-Chem 5.0, Q-Chem, Inc., Pleasanton, CA (2017)
 Q-Chem 5.0.2 for Intel X86 EM64T Linux

User input:
--------------------------------------------------------------
$molecule
0 2
C        1.5398761790    0.3852238667   -0.1724696979
C        0.6669202501   -0.8652302544   -0.0424861583
C       -0.4983697281   -0.4482166394   -0.9673938242
C       -1.0980725063    0.3080255447    0.6362327750
C       -0.5160688272    0.9934617569   -0.5994030073
N        0.8736458510    1.4463525825   -0.4493701622
H        2.6024045254    0.4194068431    0.0629829749
H        1.1457317946   -1.8391615549   -0.1473633886
H       -1.1194472671   -1.0329678674   -1.6312876832
H       -2.0707355557    0.5975034759    1.0271046751
H       -1.1776573678    1.6872203521   -1.1119894888
C       -0.2001174052   -0.6151477720    1.1902834726
H       -0.1726544674   -1.0628282949    2.1746237925
$end

$rem
method                b3lyp
basis                 6-31+g(d,p)
unrestricted          true
symmetry              off
sym_ignore            true
incdft                false
incfock               0
scf_convergence       8
thresh                14
jobtype               freq
scf_guess             read
scf_algorithm         diis
max_scf_cycles        100
$end

--------------------------------------------------------------

             Standard Nuclear Orientation (Angstroms)
    I     Atom           X                Y                Z
 ----------------------------------------------------------------
    1      C       1.5398761790     0.3852238667    -0.1724696979
    2      C       0.6669202501    -0.8652302544    -0.0424861583
    3      C      -0.4983697281    -0.4482166394    -0.9673938242
    4      C      -1.0980725063     0.3080255447     0.6362327750
    5      C      -0.5160688272     0.9934617569    -0.5994030073
    6      N       0.8736458510     1.4463525825    -0.4493701622
    7      H       2.6024045254     0.4194068431     0.0629829749
    8      H       1.1457317946    -1.8391615549    -0.1473633886
    9      H      -1.1194472671    -1.0329678674    -1.6312876832
   10      H      -2.0707355557     0.5975034759     1.0271046751
   11      H      -1.1776573678     1.6872203521    -1.1119894888
   12      C      -0.2001174052    -0.6151477720     1.1902834726
   13      H      -0.1726544674    -1.0628282949     2.1746237925
 ----------------------------------------------------------------

    2    -286.8475784521      1.99E-09 Convergence criterion met
 Total energy in the final basis set = -286.84757845

                    Orbital Energies (a.u.)
 --------------------------------------------------------------

 Alpha MOs
 -- Occupied --
-14.330 -10.235 -10.230 -10.228 -10.226 -10.221 -10.207  -0.973
 -0.850  -0.750  -0.696  -0.601  -0.585  -0.547  -0.522  -0.473
 -0.444  -0.425  -0.408  -0.378  -0.356  -0.296  -0.284  -0.278
 -0.158

 Beta MOs
 -- Occupied --
-14.329 -10.235 -10.231 -10.230 -10.222 -10.217 -10.197  -0.969
 -0.842  -0.747  -0.684  -0.597  -0.577  -0.541  -0.519  -0.464
 -0.441  -0.419  -0.406  -0.373  -0.351  -0.287  -0.275  -0.265

          Ground-State Mulliken Net Atomic Charges

     Atom                 Charge (a.u.)    Spin (a.u.)
  --------------------------------------------------------
      1 C                    -0.070325      -0.001689
      2 C                     0.005671      -0.102152
      3 C                    -0.200104       0.600334
      4 C                    -0.099295      -0.236728
      5 C                    -0.136301      -0.018742
      6 N                    -0.178808       0.062273
      7 H                     0.132192       0.001589
      8 H                     0.129512       0.011083
      9 H                     0.147001      -0.025690
     10 H                     0.138928       0.010793
     11 H                     0.138630       0.004605
     12 C                    -0.145695       0.720855
     13 H                     0.138594      -0.026530
  --------------------------------------------------------
  Sum of atomic charges =     0.000000

                    Cartesian Multipole Moments
 -----------------------------------------------------------------
    Charge (ESU x 10^10)
                 0.0000
    Dipole Moment (Debye)
         X      -1.2054      Y      -2.2656      Z       0.2667
       Tot       2.5802
    Quadrupole Moments (Debye-Ang)
        XX     -38.2199     XY      -4.9033     YY     -45.5322
        XZ       1.5245     YZ       0.6836     ZZ     -41.6396

 Frequency:      -668.55                 362.76                 396.18
 Force Cnst:      1.3646                 0.0936                 0.1066
 Red. Mass:       5.1820                 1.2071                 1.1528
 IR Intens:       37.896                 15.833                 30.639
 Frequency:       444.35                 482.36                 604.45
 Force Cnst:      0.3630                 0.5544                 0.9956
 Red. Mass:       3.1207                 4.0440                 4.6251
 IR Intens:       12.999                  7.197                 15.656
 Frequency:       741.20                 784.34                 831.01
 Force Cnst:      1.9633                 2.6206                 0.8751
 Red. Mass:       6.0655                 7.2301                 2.1508
 IR Intens:        3.235                  5.098                 17.418
 Frequency:       851.74                 885.81                 894.98
 Force Cnst:      1.8701                 0.9776                 0.7108
 Red. Mass:       4.3753                 2.1146                 1.5062
 IR Intens:       10.722                  8.058                  2.164
 Frequency:       913.65                 930.08                 958.37
 Force Cnst:      1.0112                 0.8097                 1.1212
 Red. Mass:       2.0561                 1.5887                 2.0718
 IR Intens:        0.459                 21.160                  2.300
 Frequency:       974.34                1026.79                1087.43
 Force Cnst:      1.1281                 1.2829                 1.2004
 Red. Mass:       2.0168                 2.0653                 1.7230
 IR Intens:        2.639                  3.482                  5.303
 Frequency:      1142.39                1178.46                1217.82
 Force Cnst:      1.2869                 1.4349                 1.3620
 Red. Mass:       1.6736                 1.7537                 1.5587
 IR Intens:       14.936                  1.742                  6.105
 Frequency:      1245.27                1275.86                1320.82
 Force Cnst:      1.4581                 1.2074                 1.5552
 Red. Mass:       1.5959                 1.2589                 1.5130
 IR Intens:        6.529                  1.071                  4.724
 Frequency:      1324.93                1412.65                1634.67
 Force Cnst:      1.7964                 3.2777                11.9303
 Red. Mass:       1.7368                 2.7877                 7.5778
 IR Intens:       17.580                  1.865                 44.572
 Frequency:      3139.09                3174.19                3175.68
 Force Cnst:      6.3291                 6.4823                 6.4916
 Red. Mass:       1.0902                 1.0920                 1.0925
 IR Intens:       17.347                 24.040                  5.151
 Frequency:      3185.81                3250.94                3267.31
 Force Cnst:      6.5352                 6.8235                 6.8909
 Red. Mass:       1.0929                 1.0958                 1.0956
 IR Intens:       19.761                  1.928                  0.410

 STANDARD THERMODYNAMIC QUANTITIES AT   298.15 K  AND     1.00 ATM

   This Molecule has  1 Imaginary Frequencies
   Zero point vibrational energy:       63.067 kcal/mol

   Atom    1 Element C  Has Mass   12.00000
   Atom    2 Element C  Has Mass   12.00000
   Atom    3 Element C  Has Mass   12.00000
   Atom    4 Element C  Has Mass   12.00000
   Atom    5 Element C  Has Mass   12.00000
   Atom    6 Element N  Has Mass   14.00307
   Atom    7 Element H  Has Mass    1.00783
   Atom    8 Element H  Has Mass    1.00783
   Atom    9 Element H  Has Mass    1.00783
   Atom   10 Element H  Has Mass    1.00783
   Atom   11 Element H  Has Mass    1.00783
   Atom   12 Element C  Has Mass   12.00000
   Atom   13 Element H  Has Mass    1.00783
   Molecular Mass:    92.050050 amu
   Principal axes and moments of inertia in amu*Bohr^2:
                             1           2           3
    Eigenvalues --      376.95184   456.73561   565.60534
          X               0.73137     0.67405     0.10375
          Y               0.53737    -0.66324     0.52091
          Z              -0.41993     0.32522     0.84728
   Rotational Symmetry Number is   1
   The Molecule is an Asymmetric Top
   Translational Enthalpy:        0.889 kcal/mol
   Rotational Enthalpy:           0.889 kcal/mol
   Vibrational Enthalpy:         64.388 kcal/mol
   gas constant (RT):             0.592 kcal/mol
   Translational Entropy:        39.471  cal/mol.K
   Rotational Entropy:           26.079  cal/mol.K
   Vibrational Entropy:           6.064  cal/mol.K

   Total Enthalpy:               66.758 kcal/mol
   Total Entropy:                71.614  cal/mol.K

 Total job time:  569.15s(wall), 559.79s(cpu)
        *  Thank you very much for using Q-Chem.  Have a nice day.  *
