 Q-Chem 5.0, Q-Chem, Inc., Pleasanton, CA (2017)
 Q-Chem 5.0.2 for Intel X86 EM64T Linux

User input:
--------------------------------------------------------------
$molecule
0 2
C        1.5442928244    0.4182702513   -0.1861778306
C        0.7285457093   -0.8543273971   -0.1156981920
C       -0.5250231054   -0.4891610274   -0.8526452250
C       -1.1129416971    0.3505158839    0.6351322477
C       -0.5118740168    0.9805378851   -0.6255407720
N        0.8426807681    1.4693320598   -0.4542173349
H        2.5660942257    0.4919781108    0.1747624510
H        1.2649758466   -1.8037079492   -0.2657202140
H       -1.1393536475   -1.1234533007   -1.4743969711
H       -1.9274314557    0.8584071183    1.1586384540
H       -1.1708011866    1.5941976996   -1.2401369079
C       -0.2473912009   -0.6483063033    1.1718393897
H       -0.3363175888   -1.2706409922    2.0436251848
$end

$rem
method                b3lyp
basis                 6-31g(d)
unrestricted          true
symmetry              off
sym_ignore            true
incdft                false
incfock               0
scf_convergence       8
thresh                14
jobtype               sp
scf_guess             core
scf_guess_mix         5
scf_algorithm         diis
max_scf_cycles        100
$end

--------------------------------------------------------------

             Standard Nuclear Orientation (Angstroms)
    I     Atom           X                Y                Z
 ----------------------------------------------------------------
    1      C       1.5442928244     0.4182702513    -0.1861778306
    2      C       0.7285457093    -0.8543273971    -0.1156981920
    3      C      -0.5250231054    -0.4891610274    -0.8526452250
    4      C      -1.1129416971     0.3505158839     0.6351322477
    5      C      -0.5118740168     0.9805378851    -0.6255407720
    6      N       0.8426807681     1.4693320598    -0.4542173349
    7      H       2.5660942257     0.4919781108     0.1747624510
    8      H       1.2649758466    -1.8037079492    -0.2657202140
    9      H      -1.1393536475    -1.1234533007    -1.4743969711
   10      H      -1.9274314557     0.8584071183     1.1586384540
   11      H      -1.1708011866     1.5941976996    -1.2401369079
   12      C      -0.2473912009    -0.6483063033     1.1718393897
   13      H      -0.3363175888    -1.2706409922     2.0436251848
 ----------------------------------------------------------------

   22    -286.8028480843      9.06E-09 Convergence criterion met
 Total energy in the final basis set = -286.80284808

                    Orbital Energies (a.u.)
 --------------------------------------------------------------

 Alpha MOs
 -- Occupied --
-14.314 -10.225 -10.222 -10.219 -10.217 -10.213 -10.195  -0.962
 -0.840  -0.739  -0.682  -0.592  -0.579  -0.538  -0.518  -0.459
 -0.430  -0.410  -0.396  -0.381  -0.324  -0.304  -0.266  -0.262
 -0.123

 Beta MOs
 -- Occupied --
-14.313 -10.225 -10.224 -10.217 -10.213 -10.211 -10.184  -0.958
 -0.831  -0.736  -0.670  -0.586  -0.572  -0.532  -0.514  -0.451
 -0.428  -0.405  -0.393  -0.377  -0.317  -0.290  -0.258  -0.255

          Ground-State Mulliken Net Atomic Charges

     Atom                 Charge (a.u.)    Spin (a.u.)
  --------------------------------------------------------
      1 C                     0.088643       0.033016
      2 C                    -0.242873      -0.059740
      3 C                    -0.114971       0.430837
      4 C                    -0.147695      -0.161811
      5 C                    -0.017169      -0.000222
      6 N                    -0.343873       0.034230
      7 H                     0.145226       0.000684
      8 H                     0.139246       0.007534
      9 H                     0.160849      -0.018530
     10 H                     0.159500       0.005926
     11 H                     0.149099       0.003709
     12 C                    -0.120404       0.758156
     13 H                     0.144423      -0.033790
  --------------------------------------------------------
  Sum of atomic charges =     0.000000

                    Cartesian Multipole Moments
 -----------------------------------------------------------------
    Charge (ESU x 10^10)
                 0.0000
    Dipole Moment (Debye)
         X      -1.1495      Y      -2.0935      Z       0.0283
       Tot       2.3885
    Quadrupole Moments (Debye-Ang)
        XX     -37.3358     XY      -4.1966     YY     -43.5679
        XZ       1.0341     YZ       0.9670     ZZ     -40.2273

 Total job time:  24.34s(wall), 58.45s(cpu)
        *  Thank you very much for using Q-Chem.  Have a nice day.  *
