 Q-Chem 5.0, Q-Chem, Inc., Pleasanton, CA (2017)
 Q-Chem 5.0.2 for Intel X86 EM64T Linux

User input:
--------------------------------------------------------------
$molecule
0 2
C        1.5434760884    0.3858143662   -0.1753184021
C        0.6693660864   -0.8625081413   -0.0379138367
C       -0.5043027226   -0.4499525031   -0.9576563082
C       -1.0965489010    0.3134439487    0.6396653382
C       -0.5173978408    0.9939002290   -0.6010755935
N        0.8727826079    1.4447284963   -0.4575641644
H        2.6060839659    0.4219049182    0.0550351109
H        1.1473966534   -1.8362532132   -0.1394733930
H       -1.1132032332   -1.0316439148   -1.6356304807
H       -2.0691905420    0.6006635492    1.0295884180
H       -1.1801588377    1.6853956861   -1.1129971504
C       -0.1937864422   -0.6066654359    1.1967551791
H       -0.1890614072   -1.0851859466    2.1660495624
$end

$rem
method                b3lyp
basis                 6-31+g(d,p)
unrestricted          true
symmetry              off
sym_ignore            true
incdft                false
incfock               0
scf_convergence       8
thresh                14
jobtype               sp
scf_guess             read
scf_algorithm         diis
max_scf_cycles        100
$end

--------------------------------------------------------------

             Standard Nuclear Orientation (Angstroms)
    I     Atom           X                Y                Z
 ----------------------------------------------------------------
    1      C       1.5434760884     0.3858143662    -0.1753184021
    2      C       0.6693660864    -0.8625081413    -0.0379138367
    3      C      -0.5043027226    -0.4499525031    -0.9576563082
    4      C      -1.0965489010     0.3134439487     0.6396653382
    5      C      -0.5173978408     0.9939002290    -0.6010755935
    6      N       0.8727826079     1.4447284963    -0.4575641644
    7      H       2.6060839659     0.4219049182     0.0550351109
    8      H       1.1473966534    -1.8362532132    -0.1394733930
    9      H      -1.1132032332    -1.0316439148    -1.6356304807
   10      H      -2.0691905420     0.6006635492     1.0295884180
   11      H      -1.1801588377     1.6853956861    -1.1129971504
   12      C      -0.1937864422    -0.6066654359     1.1967551791
   13      H      -0.1890614072    -1.0851859466     2.1660495624
 ----------------------------------------------------------------

    2    -286.8476211925      4.74E-09 Convergence criterion met
 Total energy in the final basis set = -286.84762119

                    Orbital Energies (a.u.)
 --------------------------------------------------------------

 Alpha MOs
 -- Occupied --
-14.330 -10.235 -10.230 -10.229 -10.226 -10.221 -10.206  -0.972
 -0.849  -0.751  -0.696  -0.602  -0.585  -0.548  -0.522  -0.472
 -0.444  -0.424  -0.409  -0.378  -0.356  -0.296  -0.284  -0.277
 -0.157

 Beta MOs
 -- Occupied --
-14.329 -10.235 -10.231 -10.230 -10.222 -10.217 -10.197  -0.968
 -0.842  -0.747  -0.684  -0.598  -0.577  -0.541  -0.519  -0.463
 -0.441  -0.419  -0.407  -0.373  -0.351  -0.287  -0.275  -0.265

          Ground-State Mulliken Net Atomic Charges

     Atom                 Charge (a.u.)    Spin (a.u.)
  --------------------------------------------------------
      1 C                    -0.069086      -0.002268
      2 C                     0.000110      -0.102176
      3 C                    -0.199458       0.595142
      4 C                    -0.101941      -0.233476
      5 C                    -0.134048      -0.021038
      6 N                    -0.179473       0.062203
      7 H                     0.132718       0.001541
      8 H                     0.129224       0.010588
      9 H                     0.146008      -0.024477
     10 H                     0.139191       0.010303
     11 H                     0.138901       0.004344
     12 C                    -0.141245       0.728135
     13 H                     0.139098      -0.028819
  --------------------------------------------------------
  Sum of atomic charges =    -0.000000

                    Cartesian Multipole Moments
 -----------------------------------------------------------------
    Charge (ESU x 10^10)
                -0.0000
    Dipole Moment (Debye)
         X      -1.2205      Y      -2.2885      Z       0.2422
       Tot       2.6049
    Quadrupole Moments (Debye-Ang)
        XX     -38.1806     XY      -4.9044     YY     -45.4807
        XZ       1.4551     YZ       0.6474     ZZ     -41.6963

 Total job time:  3.91s(wall), 11.91s(cpu)
        *  Thank you very much for using Q-Chem.  Have a nice day.  *
