 Q-Chem 5.0, Q-Chem, Inc., Pleasanton, CA (2017)
 Q-Chem 5.0.2 for Intel X86 EM64T Linux

User input:
--------------------------------------------------------------
$molecule
0 2
C        1.5442928244    0.4182702513   -0.1861778306
C        0.7285457093   -0.8543273971   -0.1156981920
C       -0.5250231054   -0.4891610274   -0.8526452250
C       -1.1129416971    0.3505158839    0.6351322477
C       -0.5118740168    0.9805378851   -0.6255407720
N        0.8426807681    1.4693320598   -0.4542173349
H        2.5660942257    0.4919781108    0.1747624510
H        1.2649758466   -1.8037079492   -0.2657202140
H       -1.1393536475   -1.1234533007   -1.4743969711
H       -1.9274314557    0.8584071183    1.1586384540
H       -1.1708011866    1.5941976996   -1.2401369079
C       -0.2473912009   -0.6483063033    1.1718393897
H       -0.3363175888   -1.2706409922    2.0436251848
$end

$rem
method                b3lyp
basis                 6-31g(d)
unrestricted          true
symmetry              off
sym_ignore            true
incdft                false
incfock               0
scf_convergence       8
thresh                14
jobtype               ts
scf_guess             read
scf_algorithm         diis
max_scf_cycles        100
geom_opt_max_cycles   500
geom_opt_dmax         100
geom_opt_tol_gradient 10
geom_opt_hessian      read
$end

--------------------------------------------------------------

    2    -286.8028480843      1.92E-09 Convergence criterion met
 Total energy in the final basis set = -286.80284808
   14    -286.8069517497      9.53E-09 Convergence criterion met
 Total energy in the final basis set = -286.80695175
   14    -286.8105085564      7.83E-09 Convergence criterion met
 Total energy in the final basis set = -286.81050856
   14    -286.8135005788      6.40E-09 Convergence criterion met
 Total energy in the final basis set = -286.81350058
   14    -286.8159813991      5.36E-09 Convergence criterion met
 Total energy in the final basis set = -286.81598140
   14    -286.8180172033      4.58E-09 Convergence criterion met
 Total energy in the final basis set = -286.81801720
   13    -286.8196713946      8.63E-09 Convergence criterion met
 Total energy in the final basis set = -286.81967139
   13    -286.8209994354      7.09E-09 Convergence criterion met
   10    -286.8245544697      9.29E-09 Convergence criterion met
 Total energy in the final basis set = -286.82455447
    9    -286.8245545079      9.18E-09 Convergence criterion met
 Total energy in the final basis set = -286.82455451
   10    -286.8245544796      7.90E-09 Convergence criterion met
 Total energy in the final basis set = -286.82455448
   13    -286.8245418749      2.23E-09 Convergence criterion met
 Total energy in the final basis set = -286.82454187
   13    -286.8245543704      1.90E-09 Convergence criterion met
 Total energy in the final basis set = -286.82455437
   13    -286.8245473559      4.33E-09 Convergence criterion met
 Total energy in the final basis set = -286.82454736

             Standard Nuclear Orientation (Angstroms)
    I     Atom           X                Y                Z
 ----------------------------------------------------------------
    1      C       1.5398761790     0.3852238667    -0.1724696979
    2      C       0.6669202501    -0.8652302544    -0.0424861583
    3      C      -0.4983697281    -0.4482166394    -0.9673938242
    4      C      -1.0980725063     0.3080255447     0.6362327750
    5      C      -0.5160688272     0.9934617569    -0.5994030073
    6      N       0.8736458510     1.4463525825    -0.4493701622
    7      H       2.6024045254     0.4194068431     0.0629829749
    8      H       1.1457317946    -1.8391615549    -0.1473633886
    9      H      -1.1194472671    -1.0329678674    -1.6312876832
   10      H      -2.0707355557     0.5975034759     1.0271046751
   11      H      -1.1776573678     1.6872203521    -1.1119894888
   12      C      -0.2001174052    -0.6151477720     1.1902834726
   13      H      -0.1726544674    -1.0628282949     2.1746237925
 ----------------------------------------------------------------

   12    -286.8245545390      8.67E-09 Convergence criterion met
 Total energy in the final basis set = -286.82455454
 Final energy is   -286.824554539040
 **  OPTIMIZATION CONVERGED  **

                    Orbital Energies (a.u.)
 --------------------------------------------------------------

 Alpha MOs
 -- Occupied --
-14.314 -10.224 -10.218 -10.216 -10.212 -10.209 -10.193  -0.959
 -0.836  -0.739  -0.685  -0.590  -0.575  -0.538  -0.513  -0.461
 -0.433  -0.414  -0.398  -0.367  -0.345  -0.284  -0.271  -0.264
 -0.145

 Beta MOs
 -- Occupied --
-14.313 -10.224 -10.219 -10.218 -10.210 -10.204 -10.184  -0.955
 -0.828  -0.735  -0.673  -0.586  -0.566  -0.531  -0.510  -0.453
 -0.429  -0.408  -0.396  -0.362  -0.340  -0.274  -0.261  -0.251

          Ground-State Mulliken Net Atomic Charges

     Atom                 Charge (a.u.)    Spin (a.u.)
  --------------------------------------------------------
      1 C                     0.091781       0.008858
      2 C                    -0.259204      -0.069100
      3 C                    -0.128158       0.570023
      4 C                    -0.132218      -0.216095
      5 C                    -0.028452       0.004394
      6 N                    -0.338622       0.064054
      7 H                     0.143589       0.001571
      8 H                     0.137713       0.010588
      9 H                     0.158577      -0.027903
     10 H                     0.147918       0.011883
     11 H                     0.146717       0.004309
     12 C                    -0.081565       0.664152
     13 H                     0.141922      -0.026734
  --------------------------------------------------------
  Sum of atomic charges =     0.000000

                    Cartesian Multipole Moments
 -----------------------------------------------------------------
    Charge (ESU x 10^10)
                 0.0000
    Dipole Moment (Debye)
         X      -1.1291      Y      -2.0818      Z       0.2753
       Tot       2.3842
    Quadrupole Moments (Debye-Ang)
        XX     -37.1742     XY      -4.2255     YY     -43.9573
        XZ       1.4277     YZ       0.6820     ZZ     -39.8425

 Total job time:  321.41s(wall), 956.20s(cpu)
        *  Thank you very much for using Q-Chem.  Have a nice day.  *
