 Q-Chem 5.0, Q-Chem, Inc., Pleasanton, CA (2017)
 Q-Chem 5.0.2 for Intel X86 EM64T Linux

User input:
--------------------------------------------------------------
$molecule
0 2
C        1.5434760884    0.3858143662   -0.1753184021
C        0.6693660864   -0.8625081413   -0.0379138367
C       -0.5043027226   -0.4499525031   -0.9576563082
C       -1.0965489010    0.3134439487    0.6396653382
C       -0.5173978408    0.9939002290   -0.6010755935
N        0.8727826079    1.4447284963   -0.4575641644
H        2.6060839659    0.4219049182    0.0550351109
H        1.1473966534   -1.8362532132   -0.1394733930
H       -1.1132032332   -1.0316439148   -1.6356304807
H       -2.0691905420    0.6006635492    1.0295884180
H       -1.1801588377    1.6853956861   -1.1129971504
C       -0.1937864422   -0.6066654359    1.1967551791
H       -0.1890614072   -1.0851859466    2.1660495624
$end

$rem
method                b3lyp
basis                 6-31+g(d,p)
unrestricted          true
symmetry              off
sym_ignore            true
incdft                false
incfock               0
scf_convergence       8
thresh                14
jobtype               freq
scf_guess             read
scf_algorithm         diis
max_scf_cycles        100
$end

--------------------------------------------------------------

             Standard Nuclear Orientation (Angstroms)
    I     Atom           X                Y                Z
 ----------------------------------------------------------------
    1      C       1.5434760884     0.3858143662    -0.1753184021
    2      C       0.6693660864    -0.8625081413    -0.0379138367
    3      C      -0.5043027226    -0.4499525031    -0.9576563082
    4      C      -1.0965489010     0.3134439487     0.6396653382
    5      C      -0.5173978408     0.9939002290    -0.6010755935
    6      N       0.8727826079     1.4447284963    -0.4575641644
    7      H       2.6060839659     0.4219049182     0.0550351109
    8      H       1.1473966534    -1.8362532132    -0.1394733930
    9      H      -1.1132032332    -1.0316439148    -1.6356304807
   10      H      -2.0691905420     0.6006635492     1.0295884180
   11      H      -1.1801588377     1.6853956861    -1.1129971504
   12      C      -0.1937864422    -0.6066654359     1.1967551791
   13      H      -0.1890614072    -1.0851859466     2.1660495624
 ----------------------------------------------------------------

    2    -286.8476211924      7.40E-10 Convergence criterion met
 Total energy in the final basis set = -286.84762119

                    Orbital Energies (a.u.)
 --------------------------------------------------------------

 Alpha MOs
 -- Occupied --
-14.330 -10.235 -10.230 -10.229 -10.226 -10.221 -10.206  -0.972
 -0.849  -0.751  -0.696  -0.602  -0.585  -0.548  -0.522  -0.472
 -0.444  -0.424  -0.409  -0.378  -0.356  -0.296  -0.284  -0.277
 -0.157

 Beta MOs
 -- Occupied --
-14.329 -10.235 -10.231 -10.230 -10.222 -10.217 -10.197  -0.968
 -0.842  -0.747  -0.684  -0.598  -0.577  -0.541  -0.519  -0.463
 -0.441  -0.419  -0.407  -0.373  -0.351  -0.287  -0.275  -0.265

          Ground-State Mulliken Net Atomic Charges

     Atom                 Charge (a.u.)    Spin (a.u.)
  --------------------------------------------------------
      1 C                    -0.069086      -0.002268
      2 C                     0.000110      -0.102176
      3 C                    -0.199458       0.595144
      4 C                    -0.101941      -0.233477
      5 C                    -0.134048      -0.021038
      6 N                    -0.179473       0.062202
      7 H                     0.132718       0.001541
      8 H                     0.129224       0.010588
      9 H                     0.146008      -0.024477
     10 H                     0.139191       0.010303
     11 H                     0.138901       0.004344
     12 C                    -0.141245       0.728135
     13 H                     0.139098      -0.028819
  --------------------------------------------------------
  Sum of atomic charges =    -0.000000

                    Cartesian Multipole Moments
 -----------------------------------------------------------------
    Charge (ESU x 10^10)
                -0.0000
    Dipole Moment (Debye)
         X      -1.2205      Y      -2.2885      Z       0.2422
       Tot       2.6049
    Quadrupole Moments (Debye-Ang)
        XX     -38.1806     XY      -4.9044     YY     -45.4807
        XZ       1.4551     YZ       0.6474     ZZ     -41.6963

 Frequency:      -656.98                 335.96                 394.17
 Force Cnst:      1.3837                 0.0778                 0.1034
 Red. Mass:       5.4411                 1.1700                 1.1291
 IR Intens:       34.880                 22.148                 29.289
 Frequency:       439.31                 484.06                 606.49
 Force Cnst:      0.4272                 0.5257                 0.9976
 Red. Mass:       3.7574                 3.8078                 4.6032
 IR Intens:        7.017                  5.879                 14.858
 Frequency:       740.98                 784.75                 827.16
 Force Cnst:      1.9294                 2.5652                 0.8625
 Red. Mass:       5.9643                 7.0698                 2.1397
 IR Intens:        3.429                  4.970                 16.728
 Frequency:       852.00                 884.28                 892.71
 Force Cnst:      1.8288                 0.9390                 0.7134
 Red. Mass:       4.2760                 2.0381                 1.5195
 IR Intens:       10.409                  8.841                  2.661
 Frequency:       913.60                 927.12                 957.83
 Force Cnst:      0.9887                 0.8296                 1.1249
 Red. Mass:       2.0105                 1.6382                 2.0810
 IR Intens:        1.234                 19.943                  2.373
 Frequency:       973.49                1026.03                1084.50
 Force Cnst:      1.1129                 1.2794                 1.2066
 Red. Mass:       1.9932                 2.0627                 1.7411
 IR Intens:        2.514                  3.820                  5.449
 Frequency:      1139.18                1175.68                1216.39
 Force Cnst:      1.2894                 1.4535                 1.3482
 Red. Mass:       1.6863                 1.7848                 1.5465
 IR Intens:       15.099                  1.849                  5.786
 Frequency:      1242.97                1272.70                1318.81
 Force Cnst:      1.4609                 1.1991                 1.5490
 Red. Mass:       1.6049                 1.2565                 1.5116
 IR Intens:        6.901                  0.932                  6.413
 Frequency:      1323.17                1406.06                1626.66
 Force Cnst:      1.8310                 3.1715                11.7174
 Red. Mass:       1.7751                 2.7227                 7.5160
 IR Intens:       15.981                  1.696                 44.244
 Frequency:      3146.99                3183.84                3185.57
 Force Cnst:      6.3610                 6.5247                 6.5292
 Red. Mass:       1.0902                 1.0925                 1.0920
 IR Intens:       17.664                 22.879                  4.461
 Frequency:      3195.54                3258.32                3264.22
 Force Cnst:      6.5748                 6.8498                 6.8832
 Red. Mass:       1.0928                 1.0951                 1.0964
 IR Intens:       19.083                  1.139                  0.528

 STANDARD THERMODYNAMIC QUANTITIES AT   298.15 K  AND     1.00 ATM

   This Molecule has  1 Imaginary Frequencies
   Zero point vibrational energy:       63.016 kcal/mol

   Atom    1 Element C  Has Mass   12.00000
   Atom    2 Element C  Has Mass   12.00000
   Atom    3 Element C  Has Mass   12.00000
   Atom    4 Element C  Has Mass   12.00000
   Atom    5 Element C  Has Mass   12.00000
   Atom    6 Element N  Has Mass   14.00307
   Atom    7 Element H  Has Mass    1.00783
   Atom    8 Element H  Has Mass    1.00783
   Atom    9 Element H  Has Mass    1.00783
   Atom   10 Element H  Has Mass    1.00783
   Atom   11 Element H  Has Mass    1.00783
   Atom   12 Element C  Has Mass   12.00000
   Atom   13 Element H  Has Mass    1.00783
   Molecular Mass:    92.050050 amu
   Principal axes and moments of inertia in amu*Bohr^2:
                             1           2           3
    Eigenvalues --      376.97261   456.55755   566.62923
          X               0.73265     0.67241     0.10526
          Y               0.53302    -0.66305     0.52560
          Z              -0.42321     0.32898     0.84420
   Rotational Symmetry Number is   1
   The Molecule is an Asymmetric Top
   Translational Enthalpy:        0.889 kcal/mol
   Rotational Enthalpy:           0.889 kcal/mol
   Vibrational Enthalpy:         64.361 kcal/mol
   gas constant (RT):             0.592 kcal/mol
   Translational Entropy:        39.471  cal/mol.K
   Rotational Entropy:           26.081  cal/mol.K
   Vibrational Entropy:           6.211  cal/mol.K

   Total Enthalpy:               66.731 kcal/mol
   Total Entropy:                71.763  cal/mol.K

 Total job time:  564.89s(wall), 558.30s(cpu)
        *  Thank you very much for using Q-Chem.  Have a nice day.  *
