 Q-Chem 5.0, Q-Chem, Inc., Pleasanton, CA (2017)
 Q-Chem 5.0.2 for Intel X86 EM64T Linux

User input:
--------------------------------------------------------------
$molecule
0 2
C        1.1539367683    0.1570357881    0.4046694211
C        0.8941989954   -0.9692349787   -0.5897704539
C       -0.5040175243   -1.0156314701   -0.4941168848
C       -1.0885210295    0.2942758132    0.0493381493
C       -0.3639745787    1.4982520023   -0.5020977489
N        0.8996541443    1.4615896558   -0.2906230978
H        2.0972965999    0.1577065598    0.9474539008
H        1.5809855740   -1.6286134427   -1.1003544089
H       -1.1629887050   -1.8263835181   -0.7933047980
H       -2.1653977568    0.3135143494    0.1975884463
H       -0.8334022982    2.2973513379   -1.0718682761
C       -0.1717451210   -0.1580714850    1.1411728921
H       -0.3786728435   -0.6024897013    2.1037988077
$end

$rem
method                b3lyp
basis                 6-31+g(d,p)
unrestricted          true
symmetry              off
sym_ignore            true
incdft                false
incfock               0
scf_convergence       8
thresh                14
jobtype               rpath
scf_guess             core
scf_guess_mix         5
scf_algorithm         diis
max_scf_cycles        100
rpath_direction       1
rpath_tol_displacement 1000
rpath_max_cycles      50
geom_opt_max_cycles   300
geom_opt_hessian      read
$end

--------------------------------------------------------------

   24    -286.8438738380      5.80E-09 Convergence criterion met
 Total energy in the final basis set = -286.84387384
   24    -286.8461342786      3.54E-09 Convergence criterion met
 Total energy in the final basis set = -286.84613428
   24    -286.8461098876      3.54E-09 Convergence criterion met
 Total energy in the final basis set = -286.84610989
   24    -286.8461377502      3.55E-09 Convergence criterion met
 Total energy in the final basis set = -286.84613775
   23    -286.8518175793      5.44E-09 Convergence criterion met
 Total energy in the final basis set = -286.85181758
   22    -286.8518061797      7.98E-09 Convergence criterion met
 Total energy in the final basis set = -286.85180618
   23    -286.8518319199      2.67E-09 Convergence criterion met
 Total energy in the final basis set = -286.85183192
   23    -286.8580109861      3.16E-09 Convergence criterion met
 Total energy in the final basis set = -286.85995223
   23    -286.8602590949      3.13E-09 Convergence criterion met
 Total energy in the final basis set = -286.86025909
   23    -286.8602159144      3.17E-09 Convergence criterion met
 Total energy in the final basis set = -286.86021591
   23    -286.8602667138      3.16E-09 Convergence criterion met
 Total energy in the final basis set = -286.86026671
   21    -286.8540896300      8.14E-09 Convergence criterion met
 Total energy in the final basis set = -286.85408963
   23    -286.8602691541      3.03E-09 Convergence criterion met
 Total energy in the final basis set = -286.86026915
   23    -286.8602688629      3.15E-09 Convergence criterion met
 Total energy in the final basis set = -286.86026886
   23    -286.8602697621      3.10E-09 Convergence criterion met
 Total energy in the final basis set = -286.86026976

                    Orbital Energies (a.u.)
 --------------------------------------------------------------

 Alpha MOs
 -- Occupied --
-14.332 -10.230 -10.230 -10.224 -10.222 -10.219 -10.211  -0.974
 -0.866  -0.757  -0.667  -0.618  -0.581  -0.545  -0.528  -0.473
 -0.441  -0.421  -0.398  -0.371  -0.346  -0.315  -0.274  -0.268
 -0.193

 Beta MOs
 -- Occupied --
-14.331 -10.231 -10.230 -10.225 -10.220 -10.217 -10.198  -0.970
 -0.862  -0.747  -0.657  -0.612  -0.577  -0.542  -0.517  -0.470
 -0.436  -0.416  -0.394  -0.368  -0.334  -0.306  -0.269  -0.266

          Ground-State Mulliken Net Atomic Charges

     Atom                 Charge (a.u.)    Spin (a.u.)
  --------------------------------------------------------
      1 C                    -0.074337      -0.124309
      2 C                    -0.075678       1.020709
      3 C                    -0.133408      -0.149896
      4 C                    -0.098535       0.110279
      5 C                    -0.092213       0.042217
      6 N                    -0.209806       0.029897
      7 H                     0.135202       0.018762
      8 H                     0.130619      -0.024292
      9 H                     0.140394       0.004642
     10 H                     0.137909       0.001311
     11 H                     0.132477       0.004618
     12 C                    -0.125765       0.066435
     13 H                     0.133141      -0.000374
  --------------------------------------------------------
  Sum of atomic charges =    -0.000000

                    Cartesian Multipole Moments
 -----------------------------------------------------------------
    Charge (ESU x 10^10)
                 0.0000
    Dipole Moment (Debye)
         X      -2.1815      Y      -1.5351      Z       0.6348
       Tot       2.7420
    Quadrupole Moments (Debye-Ang)
        XX     -40.4923     XY      -3.3560     YY     -44.3447
        XZ       1.2163     YZ       0.3214     ZZ     -40.2215

             Standard Nuclear Orientation (Angstroms)
    I     Atom           X                Y                Z
 ----------------------------------------------------------------
    1      C       1.1539367683     0.1570357881     0.4046694211
    2      C       0.8941989954    -0.9692349787    -0.5897704539
    3      C      -0.5040175243    -1.0156314701    -0.4941168848
    4      C      -1.0885210295     0.2942758132     0.0493381493
    5      C      -0.3639745787     1.4982520023    -0.5020977489
    6      N       0.8996541443     1.4615896558    -0.2906230978
    7      H       2.0972965999     0.1577065598     0.9474539008
    8      H       1.5809855740    -1.6286134427    -1.1003544089
    9      H      -1.1629887050    -1.8263835181    -0.7933047980
   10      H      -2.1653977568     0.3135143494     0.1975884463
   11      H      -0.8334022982     2.2973513379    -1.0718682761
   12      C      -0.1717451210    -0.1580714850     1.1411728921
   13      H      -0.3786728435    -0.6024897013     2.1037988077
 ----------------------------------------------------------------

 Total job time:  14717.90s(wall), 29405.42s(cpu)
        *  Thank you very much for using Q-Chem.  Have a nice day.  *
