 Q-Chem 5.0, Q-Chem, Inc., Pleasanton, CA (2017)
 Q-Chem 5.0.2 for Intel X86 EM64T Linux

User input:
--------------------------------------------------------------
$molecule
0 2
C        1.1460113781    0.1724902262    0.4345259844
C        0.8038347721   -1.0327776003   -0.4564551188
C       -0.5279478551   -1.0092895015   -0.6459723416
C       -1.0631183828    0.2191852587    0.1190320712
C       -0.3825188890    1.4446309703   -0.5245189690
N        0.8848204453    1.4382170763   -0.3628816863
H        2.1326030269    0.1813594371    0.8936805701
H        1.5247260376   -1.7330428731   -0.8618255674
H       -1.1378730901   -1.6926216701   -1.2261384860
H       -2.1389706337    0.2721304685    0.2844528312
H       -0.8971172888    2.2284210206   -1.0761632120
C       -0.1016683683    0.1140012979    1.3080214241
H       -0.2427811521   -0.6027041105    2.1142425001
$end

$rem
method                b3lyp
basis                 6-31+g(d,p)
unrestricted          true
symmetry              off
sym_ignore            true
incdft                false
incfock               0
scf_convergence       6
thresh                14
jobtype               sp
scf_guess             read
scf_algorithm         diis
max_scf_cycles        100
stability_analysis    true
max_cis_cycles        100
cis_n_roots           4
$end

--------------------------------------------------------------

             Standard Nuclear Orientation (Angstroms)
    I     Atom           X                Y                Z
 ----------------------------------------------------------------
    1      C       1.1460113781     0.1724902262     0.4345259844
    2      C       0.8038347721    -1.0327776003    -0.4564551188
    3      C      -0.5279478551    -1.0092895015    -0.6459723416
    4      C      -1.0631183828     0.2191852587     0.1190320712
    5      C      -0.3825188890     1.4446309703    -0.5245189690
    6      N       0.8848204453     1.4382170763    -0.3628816863
    7      H       2.1326030269     0.1813594371     0.8936805701
    8      H       1.5247260376    -1.7330428731    -0.8618255674
    9      H      -1.1378730901    -1.6926216701    -1.2261384860
   10      H      -2.1389706337     0.2721304685     0.2844528312
   11      H      -0.8971172888     2.2284210206    -1.0761632120
   12      C      -0.1016683683     0.1140012979     1.3080214241
   13      H      -0.2427811521    -0.6027041105     2.1142425001
 ----------------------------------------------------------------

    2    -286.8734851602      1.89E-09 Convergence criterion met
 Total energy in the final basis set = -286.87348516

         TDDFT/TDA Excitation Energies
 ---------------------------------------------------

 Excited state   1: excitation energy (eV) =    3.1037
 Total energy for state  1:                  -286.75942648 au
    <S**2>     :  1.1528
    Trans. Mom.: -0.0952 X   0.0402 Y  -0.0537 Z
    Strength   :     0.0010316657
    S(  1) --> V(  1) amplitude =  0.9402 alpha
    D( 23) --> V(  1) amplitude = -0.1776 beta
    D( 24) --> V(  1) amplitude =  0.1564 beta

 Excited state   2: excitation energy (eV) =    4.1413
 Total energy for state  2:                  -286.72129576 au
    <S**2>     :  1.6976
    Trans. Mom.: -0.0060 X   0.0178 Y   0.0616 Z
    Strength   :     0.0004205598
    D( 22) --> V(  1) amplitude =  0.2039 alpha
    D( 24) --> V(  1) amplitude = -0.2946 alpha
    S(  1) --> V(  1) amplitude = -0.1775 alpha
    S(  1) --> V(  2) amplitude =  0.5184 alpha
    S(  1) --> V(  3) amplitude =  0.2432 alpha
    D( 22) --> V(  1) amplitude = -0.1867 beta
    D( 23) --> S(  1) amplitude =  0.2217 beta
    D( 23) --> V(  3) amplitude =  0.2018 beta
    D( 24) --> S(  1) amplitude =  0.4162 beta
    D( 24) --> V(  1) amplitude =  0.3366 beta

 Excited state   3: excitation energy (eV) =    4.2604
 Total energy for state  3:                  -286.71691982 au
    <S**2>     :  1.6987
    Trans. Mom.:  0.0217 X   0.1033 Y   0.0943 Z
    Strength   :     0.0020918167
    D( 22) --> V(  1) amplitude = -0.1561 alpha
    D( 24) --> V(  1) amplitude = -0.3386 alpha
    S(  1) --> V(  2) amplitude = -0.4403 alpha
    S(  1) --> V(  3) amplitude = -0.1995 alpha
    D( 22) --> V(  1) amplitude =  0.1667 beta
    D( 23) --> S(  1) amplitude =  0.2219 beta
    D( 23) --> V(  1) amplitude =  0.2872 beta
    D( 24) --> S(  1) amplitude =  0.5586 beta
    D( 24) --> V(  3) amplitude =  0.2234 beta

 Excited state   4: excitation energy (eV) =    4.3759
 Total energy for state  4:                  -286.71267344 au
    <S**2>     :  2.2306
    Trans. Mom.:  0.0289 X   0.0570 Y   0.1990 Z
    Strength   :     0.0046822231
    D( 22) --> V(  1) amplitude = -0.2035 alpha
    D( 22) --> V(  2) amplitude =  0.1572 alpha
    D( 23) --> V(  1) amplitude = -0.5358 alpha
    S(  1) --> V(  1) amplitude = -0.2086 alpha
    D( 22) --> S(  1) amplitude =  0.1584 beta
    D( 22) --> V(  1) amplitude =  0.2700 beta
    D( 22) --> V(  3) amplitude =  0.1681 beta
    D( 23) --> S(  1) amplitude = -0.3777 beta
    D( 23) --> V(  1) amplitude = -0.4064 beta
    D( 24) --> S(  1) amplitude =  0.2353 beta
    D( 24) --> V(  1) amplitude =  0.2034 beta

 ---------------------------------------------------

                    Orbital Energies (a.u.)
 --------------------------------------------------------------

 Alpha MOs
 -- Occupied --
-14.337 -10.235 -10.231 -10.221 -10.216 -10.213 -10.209  -0.965
 -0.833  -0.737  -0.715  -0.589  -0.583  -0.539  -0.520  -0.481
 -0.429  -0.420  -0.391  -0.383  -0.358  -0.305  -0.283  -0.271
 -0.206

 Beta MOs
 -- Occupied --
-14.336 -10.235 -10.231 -10.221 -10.212 -10.208 -10.202  -0.961
 -0.827  -0.735  -0.700  -0.587  -0.571  -0.536  -0.517  -0.472
 -0.425  -0.416  -0.389  -0.380  -0.352  -0.298  -0.273  -0.268

          Ground-State Mulliken Net Atomic Charges

     Atom                 Charge (a.u.)    Spin (a.u.)
  --------------------------------------------------------
      1 C                     0.025682      -0.090158
      2 C                    -0.147325       0.049352
      3 C                    -0.127522       0.091946
      4 C                     0.007713      -0.060926
      5 C                    -0.091749      -0.030751
      6 N                    -0.203082       0.024430
      7 H                     0.129400       0.003583
      8 H                     0.138966       0.000550
      9 H                     0.138695       0.000231
     10 H                     0.124663       0.003514
     11 H                     0.137288      -0.000138
     12 C                    -0.271644       1.034160
     13 H                     0.138915      -0.025794
  --------------------------------------------------------
  Sum of atomic charges =    -0.000000

                    Cartesian Multipole Moments
 -----------------------------------------------------------------
    Charge (ESU x 10^10)
                -0.0000
    Dipole Moment (Debye)
         X      -1.6815      Y      -1.9835      Z       0.0118
       Tot       2.6003
    Quadrupole Moments (Debye-Ang)
        XX     -39.2662     XY      -4.5411     YY     -44.0173
        XZ       2.3887     YZ       0.1744     ZZ     -42.2180

 Total job time:  298.29s(wall), 213.84s(cpu)
        *  Thank you very much for using Q-Chem.  Have a nice day.  *
