 Q-Chem 5.0, Q-Chem, Inc., Pleasanton, CA (2017)
 Q-Chem 5.0.2 for Intel X86 EM64T Linux

User input:
--------------------------------------------------------------
$molecule
0 2
C        1.1589794086    0.1304803584    0.4226177283
C        0.9553820095   -0.9980227466   -0.5804675674
C       -0.4620418026   -1.1026358935   -0.2571907161
C       -1.1011036645    0.3530283047    0.0160240134
C       -0.3133957348    1.4875886170   -0.5301053754
N        0.9466080268    1.4197347000   -0.2859754158
H        2.0590070336    0.1416224907    1.0376818322
H        1.5509601667   -1.3202361628   -1.4286876436
H       -1.1554880756   -1.9102025371   -0.4648202392
H       -2.1819595149    0.3701997332    0.1120341634
H       -0.7368100768    2.2969437411   -1.1219874517
C       -0.2333638937   -0.3043977920    1.0290870642
H       -0.4867738820   -0.5641028131    2.0517896073
$end

$rem
method                b3lyp
basis                 6-31+g(d,p)
unrestricted          true
symmetry              off
sym_ignore            true
incdft                false
incfock               0
scf_convergence       8
thresh                14
jobtype               sp
scf_guess             read
scf_algorithm         diis
max_scf_cycles        100
scf_final_print       1
$end

--------------------------------------------------------------

             Standard Nuclear Orientation (Angstroms)
    I     Atom           X                Y                Z
 ----------------------------------------------------------------
    1      C       1.1589794086     0.1304803584     0.4226177283
    2      C       0.9553820095    -0.9980227466    -0.5804675674
    3      C      -0.4620418026    -1.1026358935    -0.2571907161
    4      C      -1.1011036645     0.3530283047     0.0160240134
    5      C      -0.3133957348     1.4875886170    -0.5301053754
    6      N       0.9466080268     1.4197347000    -0.2859754158
    7      H       2.0590070336     0.1416224907     1.0376818322
    8      H       1.5509601667    -1.3202361628    -1.4286876436
    9      H      -1.1554880756    -1.9102025371    -0.4648202392
   10      H      -2.1819595149     0.3701997332     0.1120341634
   11      H      -0.7368100768     2.2969437411    -1.1219874517
   12      C      -0.2333638937    -0.3043977920     1.0290870642
   13      H      -0.4867738820    -0.5641028131     2.0517896073
 ----------------------------------------------------------------

    2    -286.8602697621      8.72E-10 Convergence criterion met
 Total energy in the final basis set = -286.86026976

                    Orbital Energies (a.u.)
 --------------------------------------------------------------

 Alpha MOs
 -- Occupied --
-14.332 -10.230 -10.230 -10.224 -10.222 -10.219 -10.211  -0.974
 -0.866  -0.757  -0.667  -0.618  -0.581  -0.545  -0.528  -0.473
 -0.441  -0.421  -0.398  -0.371  -0.346  -0.315  -0.274  -0.268
 -0.193

 Beta MOs
 -- Occupied --
-14.331 -10.231 -10.230 -10.225 -10.220 -10.217 -10.198  -0.970
 -0.862  -0.747  -0.657  -0.612  -0.577  -0.542  -0.517  -0.470
 -0.436  -0.416  -0.394  -0.368  -0.334  -0.306  -0.269  -0.266

          Ground-State Mulliken Net Atomic Charges

     Atom                 Charge (a.u.)    Spin (a.u.)
  --------------------------------------------------------
      1 C                    -0.074337      -0.124308
      2 C                    -0.075678       1.020708
      3 C                    -0.133407      -0.149895
      4 C                    -0.098535       0.110278
      5 C                    -0.092213       0.042220
      6 N                    -0.209806       0.029895
      7 H                     0.135202       0.018761
      8 H                     0.130619      -0.024291
      9 H                     0.140394       0.004642
     10 H                     0.137909       0.001311
     11 H                     0.132477       0.004618
     12 C                    -0.125765       0.066436
     13 H                     0.133141      -0.000374
  --------------------------------------------------------
  Sum of atomic charges =     0.000000

                    Cartesian Multipole Moments
 -----------------------------------------------------------------
    Charge (ESU x 10^10)
                 0.0000
    Dipole Moment (Debye)
         X      -2.1815      Y      -1.5351      Z       0.6348
       Tot       2.7420
    Quadrupole Moments (Debye-Ang)
        XX     -40.5066     XY      -3.3645     YY     -44.3496
        XZ       1.2187     YZ       0.3226     ZZ     -40.2217

 Total job time:  10.13s(wall), 12.59s(cpu)
        *  Thank you very much for using Q-Chem.  Have a nice day.  *
