 Q-Chem 5.0, Q-Chem, Inc., Pleasanton, CA (2017)
 Q-Chem 5.0.2 for Intel X86 EM64T Linux

User input:
--------------------------------------------------------------
$molecule
0 2
C        1.6725126043    0.3311012349   -0.3221760064
C        1.0791593678   -0.8827989388   -0.3052612500
C       -0.3519489594   -1.0536759781   -0.0040982586
C       -1.1389924911    0.3670509865    0.1156775950
C       -0.2941946362    1.5325435946   -0.2059126981
N        0.9887006993    1.5477673956   -0.3212230868
H        2.7442856411    0.4217934374   -0.4783777125
H        1.6580595472   -1.7760084662   -0.5270942624
H       -0.8560958251   -1.9047381270   -0.4656933304
H       -2.1728038602    0.4426580130   -0.2271090131
H       -0.8220613849    2.4652665110   -0.4194691207
C       -0.8849654229   -0.5251033444    1.2498676945
H       -1.6216552800   -0.9658563180    1.9108694498
****
C        1.1400153431    0.1762501801    0.4456666585
C        0.8120249749   -1.0245318244   -0.4559553607
C       -0.5154655832   -1.0057803735   -0.6585373865
C       -1.0649383641    0.2084835987    0.1169198881
C       -0.3891894785    1.4437576316   -0.5126244718
N        0.8759768936    1.4474915353   -0.3467152759
H        2.1249101250    0.1898589474    0.9101670535
H        1.5411375765   -1.7178911861   -0.8606001271
H       -1.1132959066   -1.6735259452   -1.2693243002
H       -2.1423904365    0.2492290372    0.2771646915
H       -0.9092569034    2.2248052473   -1.0647220007
C       -0.1109968092    0.1063244150    1.3116636868
H       -0.2485314315   -0.6244712633    2.1068969444
$end

$rem
method                b3lyp
basis                 6-31g(d)
unrestricted          true
symmetry              off
sym_ignore            true
incdft                false
incfock               0
scf_convergence       8
thresh                14
jobtype               fsm
scf_guess             core
scf_guess_mix         5
scf_algorithm         diis
max_scf_cycles        100
fsm_nnode             21
fsm_ngrad             6
fsm_mode              2
fsm_opt_mode          2
$end

--------------------------------------------------------------

   20    -286.8549715341      7.57E-09 Convergence criterion met
 Total energy in the final basis set = -286.85497153
   21    -286.8516614662      2.62E-09 Convergence criterion met
 Total energy in the final basis set = -286.85166147
   21    -286.8532748256      8.59E-09 Convergence criterion met
 Total energy in the final basis set = -286.85327483
   21    -286.8538626179      6.92E-09 Convergence criterion met
 Total energy in the final basis set = -286.85386262
   20    -286.8484587769      9.71E-09 Convergence criterion met
 Total energy in the final basis set = -286.84845878
   21    -286.8494624571      4.67E-09 Convergence criterion met
 Total energy in the final basis set = -286.84946246
   21    -286.8517452293      4.81E-09 Convergence criterion met
 Total energy in the final basis set = -286.85174523
   21    -286.8521904158      9.40E-09 Convergence criterion met
 Total energy in the final basis set = -286.76929154
   27    -286.7694789855      4.85E-09 Convergence criterion met
 Total energy in the final basis set = -286.76947899
   26    -286.7692313676      8.75E-09 Convergence criterion met
 Total energy in the final basis set = -286.76923137
   27    -286.7695487110      4.94E-09 Convergence criterion met
 Total energy in the final basis set = -286.76954871
   26    -286.7692096338      8.76E-09 Convergence criterion met
 Total energy in the final basis set = -286.76920963
   27    -286.7695782599      4.92E-09 Convergence criterion met
 Total energy in the final basis set = -286.76957826
   26    -286.7692112141      8.92E-09 Convergence criterion met
 Total energy in the final basis set = -286.76921121
   27    -286.7695853987      4.81E-09 Convergence criterion met
 Total energy in the final basis set = -286.76958540

                    Orbital Energies (a.u.)
 --------------------------------------------------------------

 Alpha MOs
 -- Occupied --
-14.331 -10.242 -10.225 -10.222 -10.221 -10.209 -10.192  -0.948
 -0.830  -0.755  -0.660  -0.611  -0.588  -0.532  -0.490  -0.460
 -0.438  -0.419  -0.393  -0.374  -0.334  -0.293  -0.265  -0.249
 -0.147

 Beta MOs
 -- Occupied --
-14.331 -10.244 -10.225 -10.223 -10.222 -10.194 -10.186  -0.947
 -0.825  -0.750  -0.652  -0.608  -0.570  -0.530  -0.485  -0.457
 -0.435  -0.416  -0.390  -0.373  -0.323  -0.279  -0.263  -0.234

          Ground-State Mulliken Net Atomic Charges

     Atom                 Charge (a.u.)    Spin (a.u.)
  --------------------------------------------------------
      1 C                    -0.037733      -0.138661
      2 C                    -0.077626       0.391354
      3 C                    -0.110816      -0.178703
      4 C                    -0.242568      -0.028269
      5 C                     0.121043      -0.014236
      6 N                    -0.334495       0.009433
      7 H                     0.142316       0.006707
      8 H                     0.146230      -0.021665
      9 H                     0.156284       0.008708
     10 H                     0.143742       0.019139
     11 H                     0.151735       0.001239
     12 C                    -0.207234       0.979931
     13 H                     0.149124      -0.034976
  --------------------------------------------------------
  Sum of atomic charges =    -0.000000

                    Cartesian Multipole Moments
 -----------------------------------------------------------------
    Charge (ESU x 10^10)
                -0.0000
    Dipole Moment (Debye)
         X      -1.7025      Y      -1.7591      Z      -0.3227
       Tot       2.4692
    Quadrupole Moments (Debye-Ang)
        XX     -37.5350     XY      -3.1998     YY     -40.8117
        XZ       0.8806     YZ       0.1807     ZZ     -43.0099

             Standard Nuclear Orientation (Angstroms)
    I     Atom           X                Y                Z
 ----------------------------------------------------------------
    1      C       1.3236819210     0.2417502468     0.1870109424
    2      C       0.8968014870    -0.9569624109    -0.5111648071
    3      C      -0.4829110703    -0.9836692483    -0.5218132920
    4      C      -1.0697564635     0.2903088563     0.0371545080
    5      C      -0.3834153954     1.5147167270    -0.4650887790
    6      N       0.8903593883     1.5006483408    -0.3283440732
    7      H       2.3610947572     0.2876659382     0.5516128745
    8      H       1.5565147083    -1.8007840732    -0.6850016178
    9      H      -1.0953970259    -1.8370103331    -0.8015077910
   10      H      -2.1696283982     0.3469946855     0.0791026760
   11      H      -0.9013856611     2.3968962641    -0.8340090100
   12      C      -0.3044450242    -0.1470860876     1.2828278108
   13      H      -0.6641609981    -0.8741679949     2.0111065075
 ----------------------------------------------------------------

 Total job time:  3120.61s(wall), 4283.39s(cpu)
        *  Thank you very much for using Q-Chem.  Have a nice day.  *
