 Q-Chem 5.0, Q-Chem, Inc., Pleasanton, CA (2017)
 Q-Chem 5.0.2 for Intel X86 EM64T Linux

User input:
--------------------------------------------------------------
$molecule
0 2
C        1.1402084052    0.1755049134    0.4448917613
C        0.8122076139   -1.0252423513   -0.4554839766
C       -0.5152931893   -1.0058040347   -0.6584513312
C       -1.0649362654    0.2081377606    0.1173216711
C       -0.3890246658    1.4432950532   -0.5131936245
N        0.8758998134    1.4475045746   -0.3470000053
H        2.1251132494    0.1904955930    0.9092635306
H        1.5408866563   -1.7187045516   -0.8606278038
H       -1.1122489463   -1.6730959986   -1.2705491609
H       -2.1424761581    0.2492542523    0.2768111026
H       -0.9099504129    2.2253369147   -1.0630576167
C       -0.1104057958    0.1067347597    1.3122066213
H       -0.2499803047   -0.6234168852    2.1078688321
$end

$rem
method                b3lyp
basis                 6-31g(d)
unrestricted          true
symmetry              off
sym_ignore            true
incdft                false
incfock               0
scf_convergence       8
thresh                14
jobtype               opt
scf_guess             core
scf_guess_mix         5
scf_algorithm         diis
max_scf_cycles        100
geom_opt_max_cycles   300
$end

--------------------------------------------------------------

   21    -286.8516598987      2.70E-09 Convergence criterion met
 Total energy in the final basis set = -286.85165990
   16    -286.8516611616      4.06E-09 Convergence criterion met
 Total energy in the final basis set = -286.85166116

             Standard Nuclear Orientation (Angstroms)
    I     Atom           X                Y                Z
 ----------------------------------------------------------------
    1      C       1.1400153431     0.1762501801     0.4456666585
    2      C       0.8120249749    -1.0245318244    -0.4559553607
    3      C      -0.5154655832    -1.0057803735    -0.6585373865
    4      C      -1.0649383641     0.2084835987     0.1169198881
    5      C      -0.3891894785     1.4437576316    -0.5126244718
    6      N       0.8759768936     1.4474915353    -0.3467152759
    7      H       2.1249101250     0.1898589474     0.9101670535
    8      H       1.5411375765    -1.7178911861    -0.8606001271
    9      H      -1.1132959066    -1.6735259452    -1.2693243002
   10      H      -2.1423904365     0.2492290372     0.2771646915
   11      H      -0.9092569034     2.2248052473    -1.0647220007
   12      C      -0.1109968092     0.1063244150     1.3116636868
   13      H      -0.2485314315    -0.6244712633     2.1068969444
 ----------------------------------------------------------------

   16    -286.8516615562      3.98E-09 Convergence criterion met
 Total energy in the final basis set = -286.85166156
 Final energy is   -286.851661556195
 **  OPTIMIZATION CONVERGED  **

                    Orbital Energies (a.u.)
 --------------------------------------------------------------

 Alpha MOs
 -- Occupied --
-14.322 -10.224 -10.220 -10.210 -10.204 -10.201 -10.197  -0.952
 -0.821  -0.726  -0.705  -0.579  -0.573  -0.531  -0.512  -0.472
 -0.418  -0.410  -0.381  -0.373  -0.348  -0.294  -0.271  -0.258
 -0.196

 Beta MOs
 -- Occupied --
-14.321 -10.224 -10.221 -10.210 -10.200 -10.196 -10.190  -0.949
 -0.815  -0.725  -0.690  -0.577  -0.561  -0.527  -0.509  -0.463
 -0.414  -0.406  -0.379  -0.369  -0.342  -0.287  -0.261  -0.255

          Ground-State Mulliken Net Atomic Charges

     Atom                 Charge (a.u.)    Spin (a.u.)
  --------------------------------------------------------
      1 C                    -0.094494      -0.045009
      2 C                    -0.088237       0.040502
      3 C                    -0.095608       0.079306
      4 C                    -0.246352      -0.043859
      5 C                     0.092257      -0.008818
      6 N                    -0.325159       0.021885
      7 H                     0.139805       0.003027
      8 H                     0.146103       0.000872
      9 H                     0.145575       0.000336
     10 H                     0.133937       0.002867
     11 H                     0.149659      -0.000175
     12 C                    -0.096285       0.975585
     13 H                     0.138799      -0.026517
  --------------------------------------------------------
  Sum of atomic charges =    -0.000000

                    Cartesian Multipole Moments
 -----------------------------------------------------------------
    Charge (ESU x 10^10)
                -0.0000
    Dipole Moment (Debye)
         X      -1.5114      Y      -1.8322      Z      -0.0228
       Tot       2.3753
    Quadrupole Moments (Debye-Ang)
        XX     -38.4645     XY      -4.0847     YY     -42.3585
        XZ       2.0896     YZ       0.2882     ZZ     -40.6591

 Total job time:  138.73s(wall), 170.92s(cpu)
        *  Thank you very much for using Q-Chem.  Have a nice day.  *
