 Q-Chem 5.0, Q-Chem, Inc., Pleasanton, CA (2017)
 Q-Chem 5.0.2 for Intel X86 EM64T Linux

User input:
--------------------------------------------------------------
$molecule
0 2
C        1.1539367683    0.1570357881    0.4046694211
C        0.8941989954   -0.9692349787   -0.5897704539
C       -0.5040175243   -1.0156314701   -0.4941168848
C       -1.0885210295    0.2942758132    0.0493381493
C       -0.3639745787    1.4982520023   -0.5020977489
N        0.8996541443    1.4615896558   -0.2906230978
H        2.0972965999    0.1577065598    0.9474539008
H        1.5809855740   -1.6286134427   -1.1003544089
H       -1.1629887050   -1.8263835181   -0.7933047980
H       -2.1653977568    0.3135143494    0.1975884463
H       -0.8334022982    2.2973513379   -1.0718682761
C       -0.1717451210   -0.1580714850    1.1411728921
H       -0.3786728435   -0.6024897013    2.1037988077
$end

$rem
method                b3lyp
basis                 6-31+g(d,p)
unrestricted          true
symmetry              off
sym_ignore            true
incdft                false
incfock               0
scf_convergence       8
thresh                14
jobtype               sp
scf_guess             read
scf_algorithm         diis
max_scf_cycles        100
$end

--------------------------------------------------------------

             Standard Nuclear Orientation (Angstroms)
    I     Atom           X                Y                Z
 ----------------------------------------------------------------
    1      C       1.1539367683     0.1570357881     0.4046694211
    2      C       0.8941989954    -0.9692349787    -0.5897704539
    3      C      -0.5040175243    -1.0156314701    -0.4941168848
    4      C      -1.0885210295     0.2942758132     0.0493381493
    5      C      -0.3639745787     1.4982520023    -0.5020977489
    6      N       0.8996541443     1.4615896558    -0.2906230978
    7      H       2.0972965999     0.1577065598     0.9474539008
    8      H       1.5809855740    -1.6286134427    -1.1003544089
    9      H      -1.1629887050    -1.8263835181    -0.7933047980
   10      H      -2.1653977568     0.3135143494     0.1975884463
   11      H      -0.8334022982     2.2973513379    -1.0718682761
   12      C      -0.1717451210    -0.1580714850     1.1411728921
   13      H      -0.3786728435    -0.6024897013     2.1037988077
 ----------------------------------------------------------------

    2    -286.8438738381      1.75E-09 Convergence criterion met
 Total energy in the final basis set = -286.84387384

                    Orbital Energies (a.u.)
 --------------------------------------------------------------

 Alpha MOs
 -- Occupied --
-14.334 -10.234 -10.231 -10.228 -10.225 -10.223 -10.199  -0.969
 -0.850  -0.750  -0.690  -0.601  -0.587  -0.546  -0.524  -0.474
 -0.436  -0.418  -0.409  -0.387  -0.351  -0.307  -0.287  -0.266
 -0.152

 Beta MOs
 -- Occupied --
-14.334 -10.236 -10.232 -10.228 -10.225 -10.214 -10.189  -0.965
 -0.844  -0.743  -0.680  -0.597  -0.577  -0.544  -0.516  -0.469
 -0.432  -0.413  -0.407  -0.385  -0.346  -0.291  -0.277  -0.262

          Ground-State Mulliken Net Atomic Charges

     Atom                 Charge (a.u.)    Spin (a.u.)
  --------------------------------------------------------
      1 C                     0.017089      -0.124140
      2 C                    -0.133327       0.738973
      3 C                    -0.139541      -0.230520
      4 C                    -0.018092      -0.032216
      5 C                    -0.063944       0.042172
      6 N                    -0.207011      -0.002873
      7 H                     0.130369       0.008320
      8 H                     0.138847      -0.030202
      9 H                     0.140541       0.012660
     10 H                     0.131571       0.003626
     11 H                     0.134890       0.001351
     12 C                    -0.278707       0.640914
     13 H                     0.147314      -0.028064
  --------------------------------------------------------
  Sum of atomic charges =    -0.000000

                    Cartesian Multipole Moments
 -----------------------------------------------------------------
    Charge (ESU x 10^10)
                -0.0000
    Dipole Moment (Debye)
         X      -2.1835      Y      -1.8658      Z       0.6421
       Tot       2.9429
    Quadrupole Moments (Debye-Ang)
        XX     -39.7002     XY      -3.8505     YY     -44.0653
        XZ       2.0390     YZ       0.3106     ZZ     -41.6042

 Total job time:  10.41s(wall), 12.44s(cpu)
        *  Thank you very much for using Q-Chem.  Have a nice day.  *
