 Q-Chem 5.0, Q-Chem, Inc., Pleasanton, CA (2017)
 Q-Chem 5.0.2 for Intel X86 EM64T Linux

User input:
--------------------------------------------------------------
$molecule
0 2
C        1.1519393712    0.1575589660    0.4096546565
C        0.8932461612   -0.9744926528   -0.5772143052
C       -0.5038962819   -1.0158898259   -0.4845049864
C       -1.0888692322    0.2958265697    0.0500971271
C       -0.3591797694    1.4948604870   -0.5058267151
N        0.9031194744    1.4587618637   -0.2961867868
H        2.0945588588    0.1616069189    0.9560764059
H        1.5770335939   -1.6099373511   -1.1225553809
H       -1.1647746255   -1.8264107622   -0.7834626945
H       -2.1665736053    0.3174135797    0.1963239787
H       -0.8278259317    2.2907778411   -1.0824328366
C       -0.1738789022   -0.1469041903    1.1472746208
H       -0.3775468863   -0.6238705331    2.0946428655
$end

$rem
method                b3lyp
basis                 6-31+g(d,p)
unrestricted          true
symmetry              off
sym_ignore            true
incdft                false
incfock               0
scf_convergence       8
thresh                14
jobtype               freq
scf_guess             read
scf_algorithm         diis
max_scf_cycles        100
$end

--------------------------------------------------------------

             Standard Nuclear Orientation (Angstroms)
    I     Atom           X                Y                Z
 ----------------------------------------------------------------
    1      C       1.1519393712     0.1575589660     0.4096546565
    2      C       0.8932461612    -0.9744926528    -0.5772143052
    3      C      -0.5038962819    -1.0158898259    -0.4845049864
    4      C      -1.0888692322     0.2958265697     0.0500971271
    5      C      -0.3591797694     1.4948604870    -0.5058267151
    6      N       0.9031194744     1.4587618637    -0.2961867868
    7      H       2.0945588588     0.1616069189     0.9560764059
    8      H       1.5770335939    -1.6099373511    -1.1225553809
    9      H      -1.1647746255    -1.8264107622    -0.7834626945
   10      H      -2.1665736053     0.3174135797     0.1963239787
   11      H      -0.8278259317     2.2907778411    -1.0824328366
   12      C      -0.1738789022    -0.1469041903     1.1472746208
   13      H      -0.3775468863    -0.6238705331     2.0946428655
 ----------------------------------------------------------------

    2    -286.8438350603      1.68E-09 Convergence criterion met
 Total energy in the final basis set = -286.84383506

                    Orbital Energies (a.u.)
 --------------------------------------------------------------

 Alpha MOs
 -- Occupied --
-14.334 -10.233 -10.231 -10.229 -10.226 -10.223 -10.199  -0.969
 -0.851  -0.750  -0.690  -0.601  -0.587  -0.546  -0.524  -0.475
 -0.435  -0.419  -0.409  -0.386  -0.352  -0.307  -0.286  -0.266
 -0.153

 Beta MOs
 -- Occupied --
-14.334 -10.236 -10.232 -10.228 -10.225 -10.214 -10.190  -0.966
 -0.845  -0.743  -0.680  -0.597  -0.578  -0.543  -0.516  -0.469
 -0.431  -0.414  -0.407  -0.384  -0.346  -0.292  -0.276  -0.262

          Ground-State Mulliken Net Atomic Charges

     Atom                 Charge (a.u.)    Spin (a.u.)
  --------------------------------------------------------
      1 C                     0.022826      -0.124764
      2 C                    -0.140487       0.736062
      3 C                    -0.134066      -0.234309
      4 C                    -0.023812      -0.028078
      5 C                    -0.063514       0.042010
      6 N                    -0.207616      -0.002221
      7 H                     0.130557       0.009020
      8 H                     0.138369      -0.028008
      9 H                     0.140271       0.013303
     10 H                     0.131619       0.004035
     11 H                     0.134711       0.001297
     12 C                    -0.277770       0.640760
     13 H                     0.148914      -0.029107
  --------------------------------------------------------
  Sum of atomic charges =    -0.000000

                    Cartesian Multipole Moments
 -----------------------------------------------------------------
    Charge (ESU x 10^10)
                 0.0000
    Dipole Moment (Debye)
         X      -2.1833      Y      -1.8617      Z       0.5977
       Tot       2.9309
    Quadrupole Moments (Debye-Ang)
        XX     -39.7421     XY      -3.7690     YY     -44.1251
        XZ       1.9909     YZ       0.2672     ZZ     -41.5561

 Frequency:      -763.07                 305.32                 367.57
 Force Cnst:      1.7468                 0.0653                 0.0877
 Red. Mass:       5.0916                 1.1886                 1.1016
 IR Intens:       67.349                 12.818                 36.630
 Frequency:       454.04                 475.87                 588.93
 Force Cnst:      0.5025                 0.5208                 0.7509
 Red. Mass:       4.1371                 3.9034                 3.6743
 IR Intens:       11.300                 12.504                  3.538
 Frequency:       716.85                 782.45                 811.60
 Force Cnst:      2.1062                 1.8822                 0.8989
 Red. Mass:       6.9566                 5.2181                 2.3161
 IR Intens:        0.797                  6.497                  5.575
 Frequency:       857.85                 875.36                 899.85
 Force Cnst:      1.3416                 1.1784                 0.8791
 Red. Mass:       3.0943                 2.6101                 1.8426
 IR Intens:        6.424                 24.234                  4.202
 Frequency:       910.97                 920.73                 940.57
 Force Cnst:      0.8721                 1.1084                 1.1424
 Red. Mass:       1.7836                 2.2191                 2.1917
 IR Intens:        9.347                 10.850                  2.885
 Frequency:       962.58                1027.20                1085.88
 Force Cnst:      0.8873                 1.0968                 1.1501
 Red. Mass:       1.6254                 1.7642                 1.6555
 IR Intens:        7.143                  5.682                  5.519
 Frequency:      1138.18                1185.64                1218.64
 Force Cnst:      1.3141                 1.8017                 1.1795
 Red. Mass:       1.7217                 2.1753                 1.3480
 IR Intens:        4.815                  5.448                  2.075
 Frequency:      1263.56                1284.03                1307.88
 Force Cnst:      1.1501                 1.3901                 2.0106
 Red. Mass:       1.2226                 1.4310                 1.9950
 IR Intens:        0.966                  3.219                 15.216
 Frequency:      1323.46                1410.15                1651.61
 Force Cnst:      1.6095                 3.1746                12.7546
 Red. Mass:       1.5596                 2.7096                 7.9360
 IR Intens:       20.026                  2.120                 27.242
 Frequency:      3147.17                3164.33                3174.52
 Force Cnst:      6.3642                 6.4303                 6.4942
 Red. Mass:       1.0906                 1.0900                 1.0938
 IR Intens:       23.527                  5.698                 16.463
 Frequency:      3181.94                3257.94                3277.35
 Force Cnst:      6.5223                 6.8518                 6.9316
 Red. Mass:       1.0934                 1.0956                 1.0953
 IR Intens:       20.546                  1.196                  0.633

 STANDARD THERMODYNAMIC QUANTITIES AT   298.15 K  AND     1.00 ATM

   This Molecule has  1 Imaginary Frequencies
   Zero point vibrational energy:       62.858 kcal/mol

   Atom    1 Element C  Has Mass   12.00000
   Atom    2 Element C  Has Mass   12.00000
   Atom    3 Element C  Has Mass   12.00000
   Atom    4 Element C  Has Mass   12.00000
   Atom    5 Element C  Has Mass   12.00000
   Atom    6 Element N  Has Mass   14.00307
   Atom    7 Element H  Has Mass    1.00783
   Atom    8 Element H  Has Mass    1.00783
   Atom    9 Element H  Has Mass    1.00783
   Atom   10 Element H  Has Mass    1.00783
   Atom   11 Element H  Has Mass    1.00783
   Atom   12 Element C  Has Mass   12.00000
   Atom   13 Element H  Has Mass    1.00783
   Molecular Mass:    92.050050 amu
   Principal axes and moments of inertia in amu*Bohr^2:
                             1           2           3
    Eigenvalues --      377.12664   457.53074   569.98824
          X               0.08723     0.99582     0.02723
          Y               0.99428    -0.08872     0.05943
          Z              -0.06160    -0.02189     0.99786
   Rotational Symmetry Number is   1
   The Molecule is an Asymmetric Top
   Translational Enthalpy:        0.889 kcal/mol
   Rotational Enthalpy:           0.889 kcal/mol
   Vibrational Enthalpy:         64.256 kcal/mol
   gas constant (RT):             0.592 kcal/mol
   Translational Entropy:        39.471  cal/mol.K
   Rotational Entropy:           26.089  cal/mol.K
   Vibrational Entropy:           6.528  cal/mol.K

   Total Enthalpy:               66.626 kcal/mol
   Total Entropy:                72.088  cal/mol.K

 Total job time:  634.30s(wall), 564.76s(cpu)
        *  Thank you very much for using Q-Chem.  Have a nice day.  *
