 Q-Chem 5.0, Q-Chem, Inc., Pleasanton, CA (2017)
 Q-Chem 5.0.2 for Intel X86 EM64T Linux

User input:
--------------------------------------------------------------
$molecule
0 2
C        1.3236819210    0.2417502468    0.1870109424
C        0.8968014870   -0.9569624109   -0.5111648071
C       -0.4829110703   -0.9836692483   -0.5218132920
C       -1.0697564635    0.2903088563    0.0371545080
C       -0.3834153954    1.5147167270   -0.4650887790
N        0.8903593883    1.5006483408   -0.3283440732
H        2.3610947572    0.2876659382    0.5516128745
H        1.5565147083   -1.8007840732   -0.6850016178
H       -1.0953970259   -1.8370103331   -0.8015077910
H       -2.1696283982    0.3469946855    0.0791026760
H       -0.9013856611    2.3968962641   -0.8340090100
C       -0.3044450242   -0.1470860876    1.2828278108
H       -0.6641609981   -0.8741679949    2.0111065075
$end

$rem
method                b3lyp
basis                 6-31g(d)
unrestricted          true
symmetry              off
sym_ignore            true
incdft                false
incfock               0
scf_convergence       8
thresh                14
jobtype               freq
scf_guess             read
scf_algorithm         diis
max_scf_cycles        100
$end

--------------------------------------------------------------

             Standard Nuclear Orientation (Angstroms)
    I     Atom           X                Y                Z
 ----------------------------------------------------------------
    1      C       1.3236819210     0.2417502468     0.1870109424
    2      C       0.8968014870    -0.9569624109    -0.5111648071
    3      C      -0.4829110703    -0.9836692483    -0.5218132920
    4      C      -1.0697564635     0.2903088563     0.0371545080
    5      C      -0.3834153954     1.5147167270    -0.4650887790
    6      N       0.8903593883     1.5006483408    -0.3283440732
    7      H       2.3610947572     0.2876659382     0.5516128745
    8      H       1.5565147083    -1.8007840732    -0.6850016178
    9      H      -1.0953970259    -1.8370103331    -0.8015077910
   10      H      -2.1696283982     0.3469946855     0.0791026760
   11      H      -0.9013856611     2.3968962641    -0.8340090100
   12      C      -0.3044450242    -0.1470860876     1.2828278108
   13      H      -0.6641609981    -0.8741679949     2.0111065075
 ----------------------------------------------------------------

    2    -286.7815374530      3.21E-09 Convergence criterion met
 Total energy in the final basis set = -286.78153745

                    Orbital Energies (a.u.)
 --------------------------------------------------------------

 Alpha MOs
 -- Occupied --
-14.328 -10.242 -10.226 -10.217 -10.216 -10.208 -10.187  -0.953
 -0.832  -0.753  -0.661  -0.608  -0.588  -0.534  -0.493  -0.459
 -0.440  -0.418  -0.393  -0.378  -0.332  -0.291  -0.268  -0.255
 -0.139

 Beta MOs
 -- Occupied --
-14.327 -10.243 -10.226 -10.218 -10.217 -10.194 -10.180  -0.951
 -0.826  -0.748  -0.652  -0.606  -0.572  -0.531  -0.488  -0.456
 -0.437  -0.415  -0.391  -0.377  -0.320  -0.278  -0.263  -0.243

          Ground-State Mulliken Net Atomic Charges

     Atom                 Charge (a.u.)    Spin (a.u.)
  --------------------------------------------------------
      1 C                    -0.058057      -0.119552
      2 C                    -0.074796       0.450014
      3 C                    -0.107178      -0.194097
      4 C                    -0.236443      -0.023621
      5 C                     0.120372      -0.020841
      6 N                    -0.330362       0.016411
      7 H                     0.144504       0.004582
      8 H                     0.142292      -0.024571
      9 H                     0.152268       0.012760
     10 H                     0.142155       0.010256
     11 H                     0.153017       0.001627
     12 C                    -0.200496       0.927845
     13 H                     0.152723      -0.040813
  --------------------------------------------------------
  Sum of atomic charges =    -0.000000

                    Cartesian Multipole Moments
 -----------------------------------------------------------------
    Charge (ESU x 10^10)
                 0.0000
    Dipole Moment (Debye)
         X      -1.6647      Y      -1.7510      Z      -0.0804
       Tot       2.4174
    Quadrupole Moments (Debye-Ang)
        XX     -37.4983     XY      -3.2548     YY     -40.9898
        XZ       1.3944     YZ      -0.3789     ZZ     -42.8351

 Frequency:     -1037.26                -393.85                 181.24
 Force Cnst:      1.8784                 0.4221                 0.0256
 Red. Mass:       2.9632                 4.6189                 1.3210
 IR Intens:       93.668                 48.122                  8.293
 Frequency:       420.76                 477.33                 557.26
 Force Cnst:      0.3357                 0.4026                 0.4985
 Red. Mass:       3.2185                 2.9992                 2.7244
 IR Intens:        1.213                 14.380                  1.239
 Frequency:       616.41                 655.77                 751.08
 Force Cnst:      0.3914                 1.7151                 1.5158
 Red. Mass:       1.7482                 6.7693                 4.5605
 IR Intens:       23.435                  6.556                  4.791
 Frequency:       832.82                 867.65                 894.13
 Force Cnst:      0.9820                 0.5881                 1.3068
 Red. Mass:       2.4029                 1.3260                 2.7744
 IR Intens:        1.501                  1.785                 11.645
 Frequency:       920.17                 947.10                 995.95
 Force Cnst:      0.8594                 1.2185                 1.5440
 Red. Mass:       1.7227                 2.3056                 2.6419
 IR Intens:        7.799                 10.580                  5.435
 Frequency:      1009.92                1058.00                1067.21
 Force Cnst:      0.9985                 1.0118                 1.5169
 Red. Mass:       1.6616                 1.5342                 2.2605
 IR Intens:       28.680                 20.286                  5.798
 Frequency:      1119.40                1156.08                1191.37
 Force Cnst:      0.9710                 1.2902                 1.1785
 Red. Mass:       1.3153                 1.6385                 1.4092
 IR Intens:        2.630                  4.895                 13.471
 Frequency:      1315.61                1332.55                1374.42
 Force Cnst:      1.8584                 1.3477                 1.8179
 Red. Mass:       1.8223                 1.2882                 1.6334
 IR Intens:       11.629                  3.099                 18.947
 Frequency:      1405.03                1493.01                1672.70
 Force Cnst:      2.3137                 3.3925                12.0057
 Red. Mass:       1.9892                 2.5831                 7.2829
 IR Intens:       15.833                  3.815                 21.467
 Frequency:      3033.10                3073.84                3189.30
 Force Cnst:      5.8979                 6.0699                 6.5329
 Red. Mass:       1.0881                 1.0904                 1.0901
 IR Intens:       25.128                 22.763                  8.165
 Frequency:      3197.24                3201.47                3225.42
 Force Cnst:      6.5863                 6.5788                 6.7332
 Red. Mass:       1.0936                 1.0894                 1.0985
 IR Intens:       19.636                  5.483                  5.556

 STANDARD THERMODYNAMIC QUANTITIES AT   298.15 K  AND     1.00 ATM

   This Molecule has  2 Imaginary Frequencies
   Zero point vibrational energy:       61.805 kcal/mol

   Atom    1 Element C  Has Mass   12.00000
   Atom    2 Element C  Has Mass   12.00000
   Atom    3 Element C  Has Mass   12.00000
   Atom    4 Element C  Has Mass   12.00000
   Atom    5 Element C  Has Mass   12.00000
   Atom    6 Element N  Has Mass   14.00307
   Atom    7 Element H  Has Mass    1.00783
   Atom    8 Element H  Has Mass    1.00783
   Atom    9 Element H  Has Mass    1.00783
   Atom   10 Element H  Has Mass    1.00783
   Atom   11 Element H  Has Mass    1.00783
   Atom   12 Element C  Has Mass   12.00000
   Atom   13 Element H  Has Mass    1.00783
   Molecular Mass:    92.050050 amu
   Principal axes and moments of inertia in amu*Bohr^2:
                             1           2           3
    Eigenvalues --      395.35594   463.31660   604.93810
          X               0.18349     0.97332     0.13774
          Y               0.97770    -0.19526     0.07729
          Z              -0.10212    -0.12049     0.98745
   Rotational Symmetry Number is   1
   The Molecule is an Asymmetric Top
   Translational Enthalpy:        0.889 kcal/mol
   Rotational Enthalpy:           0.889 kcal/mol
   Vibrational Enthalpy:         63.185 kcal/mol
   gas constant (RT):             0.592 kcal/mol
   Translational Entropy:        39.471  cal/mol.K
   Rotational Entropy:           26.207  cal/mol.K
   Vibrational Entropy:           6.801  cal/mol.K

   Total Enthalpy:               65.555 kcal/mol
   Total Entropy:                72.480  cal/mol.K

 Total job time:  301.30s(wall), 262.57s(cpu)
        *  Thank you very much for using Q-Chem.  Have a nice day.  *
