 Q-Chem 5.0, Q-Chem, Inc., Pleasanton, CA (2017)
 Q-Chem 5.0.2 for Intel X86 EM64T Linux

User input:
--------------------------------------------------------------
$molecule
0 2
C        1.3236819210    0.2417502468    0.1870109424
C        0.8968014870   -0.9569624109   -0.5111648071
C       -0.4829110703   -0.9836692483   -0.5218132920
C       -1.0697564635    0.2903088563    0.0371545080
C       -0.3834153954    1.5147167270   -0.4650887790
N        0.8903593883    1.5006483408   -0.3283440732
H        2.3610947572    0.2876659382    0.5516128745
H        1.5565147083   -1.8007840732   -0.6850016178
H       -1.0953970259   -1.8370103331   -0.8015077910
H       -2.1696283982    0.3469946855    0.0791026760
H       -0.9013856611    2.3968962641   -0.8340090100
C       -0.3044450242   -0.1470860876    1.2828278108
H       -0.6641609981   -0.8741679949    2.0111065075
$end

$rem
method                b3lyp
basis                 6-31g(d)
unrestricted          true
symmetry              off
sym_ignore            true
incdft                false
incfock               0
scf_convergence       8
thresh                14
jobtype               ts
scf_guess             read
scf_algorithm         diis
max_scf_cycles        100
geom_opt_max_cycles   500
geom_opt_dmax         100
geom_opt_tol_gradient 10
geom_opt_hessian      read
$end

--------------------------------------------------------------

    2    -286.7815374530      9.03E-10 Convergence criterion met
 Total energy in the final basis set = -286.78153745
   15    -286.7829820816      8.15E-09 Convergence criterion met
 Total energy in the final basis set = -286.78298208
   15    -286.7847016749      7.24E-09 Convergence criterion met
 Total energy in the final basis set = -286.78470167
   15    -286.7866522834      6.67E-09 Convergence criterion met
 Total energy in the final basis set = -286.78665228
   15    -286.7888366675      6.27E-09 Convergence criterion met
 Total energy in the final basis set = -286.78883667
   15    -286.7912485814      6.21E-09 Convergence criterion met
 Total energy in the final basis set = -286.79124858
   15    -286.7938712406      6.34E-09 Convergence criterion met
 Total energy in the final basis set = -286.79387124
   15    -286.7966766353      5.98E-09 Convergence criterion met
   12    -286.8208456432      4.72E-09 Convergence criterion met
 Total energy in the final basis set = -286.82084564
   12    -286.8208494116      4.95E-09 Convergence criterion met
 Total energy in the final basis set = -286.82084941
   12    -286.8208377374      6.26E-09 Convergence criterion met
 Total energy in the final basis set = -286.82083774
   12    -286.8208495915      9.17E-09 Convergence criterion met
 Total energy in the final basis set = -286.82084959
    8    -286.8208495919      5.27E-09 Convergence criterion met
 Total energy in the final basis set = -286.82084959
    8    -286.8208495886      9.78E-09 Convergence criterion met
 Total energy in the final basis set = -286.82084959

             Standard Nuclear Orientation (Angstroms)
    I     Atom           X                Y                Z
 ----------------------------------------------------------------
    1      C       1.1519393712     0.1575589660     0.4096546565
    2      C       0.8932461612    -0.9744926528    -0.5772143052
    3      C      -0.5038962819    -1.0158898259    -0.4845049864
    4      C      -1.0888692322     0.2958265697     0.0500971271
    5      C      -0.3591797694     1.4948604870    -0.5058267151
    6      N       0.9031194744     1.4587618637    -0.2961867868
    7      H       2.0945588588     0.1616069189     0.9560764059
    8      H       1.5770335939    -1.6099373511    -1.1225553809
    9      H      -1.1647746255    -1.8264107622    -0.7834626945
   10      H      -2.1665736053     0.3174135797     0.1963239787
   11      H      -0.8278259317     2.2907778411    -1.0824328366
   12      C      -0.1738789022    -0.1469041903     1.1472746208
   13      H      -0.3775468863    -0.6238705331     2.0946428655
 ----------------------------------------------------------------

    7    -286.8208495939      6.25E-09 Convergence criterion met
 Total energy in the final basis set = -286.82084959
 Final energy is   -286.820849593915
 **  OPTIMIZATION CONVERGED  **

                    Orbital Energies (a.u.)
 --------------------------------------------------------------

 Alpha MOs
 -- Occupied --
-14.318 -10.221 -10.220 -10.217 -10.214 -10.209 -10.186  -0.956
 -0.837  -0.739  -0.679  -0.591  -0.576  -0.536  -0.515  -0.463
 -0.425  -0.408  -0.397  -0.376  -0.340  -0.295  -0.273  -0.252
 -0.140

 Beta MOs
 -- Occupied --
-14.318 -10.224 -10.220 -10.216 -10.214 -10.200 -10.176  -0.952
 -0.832  -0.731  -0.668  -0.586  -0.567  -0.534  -0.507  -0.458
 -0.421  -0.403  -0.395  -0.374  -0.335  -0.279  -0.263  -0.248

          Ground-State Mulliken Net Atomic Charges

     Atom                 Charge (a.u.)    Spin (a.u.)
  --------------------------------------------------------
      1 C                    -0.095186      -0.069588
      2 C                    -0.077508       0.683185
      3 C                    -0.131323      -0.229281
      4 C                    -0.198804       0.005168
      5 C                     0.099520       0.045113
      6 N                    -0.338586      -0.005219
      7 H                     0.139877       0.008237
      8 H                     0.141176      -0.028573
      9 H                     0.148805       0.014365
     10 H                     0.142567       0.003584
     11 H                     0.144827       0.001466
     12 C                    -0.133890       0.602770
     13 H                     0.158526      -0.031227
  --------------------------------------------------------
  Sum of atomic charges =    -0.000000

                    Cartesian Multipole Moments
 -----------------------------------------------------------------
    Charge (ESU x 10^10)
                -0.0000
    Dipole Moment (Debye)
         X      -1.9652      Y      -1.7612      Z       0.5472
       Tot       2.6950
    Quadrupole Moments (Debye-Ang)
        XX     -38.7579     XY      -3.3616     YY     -42.3743
        XZ       1.5492     YZ       0.3106     ZZ     -39.8656

 Total job time:  1757.17s(wall), 2277.81s(cpu)
        *  Thank you very much for using Q-Chem.  Have a nice day.  *
