 Q-Chem 5.0, Q-Chem, Inc., Pleasanton, CA (2017)
 Q-Chem 5.0.2 for Intel X86 EM64T Linux

User input:
--------------------------------------------------------------
$molecule
0 2
C        1.1539367683    0.1570357881    0.4046694211
C        0.8941989954   -0.9692349787   -0.5897704539
C       -0.5040175243   -1.0156314701   -0.4941168848
C       -1.0885210295    0.2942758132    0.0493381493
C       -0.3639745787    1.4982520023   -0.5020977489
N        0.8996541443    1.4615896558   -0.2906230978
H        2.0972965999    0.1577065598    0.9474539008
H        1.5809855740   -1.6286134427   -1.1003544089
H       -1.1629887050   -1.8263835181   -0.7933047980
H       -2.1653977568    0.3135143494    0.1975884463
H       -0.8334022982    2.2973513379   -1.0718682761
C       -0.1717451210   -0.1580714850    1.1411728921
H       -0.3786728435   -0.6024897013    2.1037988077
$end

$rem
method                b3lyp
basis                 6-31+g(d,p)
unrestricted          true
symmetry              off
sym_ignore            true
incdft                false
incfock               0
scf_convergence       8
thresh                14
jobtype               freq
scf_guess             read
scf_algorithm         diis
max_scf_cycles        100
$end

--------------------------------------------------------------

             Standard Nuclear Orientation (Angstroms)
    I     Atom           X                Y                Z
 ----------------------------------------------------------------
    1      C       1.1539367683     0.1570357881     0.4046694211
    2      C       0.8941989954    -0.9692349787    -0.5897704539
    3      C      -0.5040175243    -1.0156314701    -0.4941168848
    4      C      -1.0885210295     0.2942758132     0.0493381493
    5      C      -0.3639745787     1.4982520023    -0.5020977489
    6      N       0.8996541443     1.4615896558    -0.2906230978
    7      H       2.0972965999     0.1577065598     0.9474539008
    8      H       1.5809855740    -1.6286134427    -1.1003544089
    9      H      -1.1629887050    -1.8263835181    -0.7933047980
   10      H      -2.1653977568     0.3135143494     0.1975884463
   11      H      -0.8334022982     2.2973513379    -1.0718682761
   12      C      -0.1717451210    -0.1580714850     1.1411728921
   13      H      -0.3786728435    -0.6024897013     2.1037988077
 ----------------------------------------------------------------

    2    -286.8438738381      4.79E-10 Convergence criterion met
 Total energy in the final basis set = -286.84387384

                    Orbital Energies (a.u.)
 --------------------------------------------------------------

 Alpha MOs
 -- Occupied --
-14.334 -10.234 -10.231 -10.228 -10.225 -10.223 -10.199  -0.969
 -0.850  -0.750  -0.690  -0.601  -0.587  -0.546  -0.524  -0.474
 -0.436  -0.418  -0.409  -0.387  -0.351  -0.307  -0.287  -0.266
 -0.152

 Beta MOs
 -- Occupied --
-14.334 -10.236 -10.232 -10.228 -10.225 -10.214 -10.189  -0.965
 -0.844  -0.743  -0.680  -0.597  -0.577  -0.544  -0.516  -0.469
 -0.432  -0.413  -0.407  -0.385  -0.346  -0.291  -0.277  -0.262

          Ground-State Mulliken Net Atomic Charges

     Atom                 Charge (a.u.)    Spin (a.u.)
  --------------------------------------------------------
      1 C                     0.017089      -0.124140
      2 C                    -0.133327       0.738974
      3 C                    -0.139541      -0.230521
      4 C                    -0.018092      -0.032216
      5 C                    -0.063944       0.042170
      6 N                    -0.207011      -0.002872
      7 H                     0.130369       0.008320
      8 H                     0.138847      -0.030202
      9 H                     0.140541       0.012660
     10 H                     0.131571       0.003626
     11 H                     0.134890       0.001351
     12 C                    -0.278707       0.640914
     13 H                     0.147314      -0.028064
  --------------------------------------------------------
  Sum of atomic charges =    -0.000000

                    Cartesian Multipole Moments
 -----------------------------------------------------------------
    Charge (ESU x 10^10)
                -0.0000
    Dipole Moment (Debye)
         X      -2.1835      Y      -1.8658      Z       0.6421
       Tot       2.9429
    Quadrupole Moments (Debye-Ang)
        XX     -39.7002     XY      -3.8505     YY     -44.0653
        XZ       2.0390     YZ       0.3106     ZZ     -41.6042

 Frequency:      -746.81                 265.44                 350.20
 Force Cnst:      1.7956                 0.0491                 0.0765
 Red. Mass:       5.4644                 1.1819                 1.0587
 IR Intens:       59.692                 14.789                 37.839
 Frequency:       449.44                 476.33                 591.30
 Force Cnst:      0.5488                 0.5324                 0.7654
 Red. Mass:       4.6115                 3.9824                 3.7157
 IR Intens:        7.338                 10.339                  3.836
 Frequency:       716.80                 781.95                 809.89
 Force Cnst:      2.0550                 1.8034                 0.8980
 Red. Mass:       6.7882                 5.0059                 2.3237
 IR Intens:        0.659                  5.679                  6.017
 Frequency:       856.07                 874.71                 896.87
 Force Cnst:      1.3096                 1.1231                 0.8714
 Red. Mass:       3.0329                 2.4913                 1.8386
 IR Intens:        4.788                 25.584                  4.593
 Frequency:       908.59                 919.69                 939.94
 Force Cnst:      0.8615                 1.1548                 1.1344
 Red. Mass:       1.7713                 2.3174                 2.1793
 IR Intens:       12.236                  8.123                  2.593
 Frequency:       961.77                1024.97                1083.55
 Force Cnst:      0.8945                 1.0912                 1.1559
 Red. Mass:       1.6413                 1.7630                 1.6711
 IR Intens:        7.299                  6.057                  5.495
 Frequency:      1136.85                1181.48                1216.76
 Force Cnst:      1.3235                 1.7930                 1.1771
 Red. Mass:       1.7380                 2.1801                 1.3495
 IR Intens:        4.865                  5.590                  1.819
 Frequency:      1260.77                1281.32                1306.86
 Force Cnst:      1.1468                 1.3885                 2.0085
 Red. Mass:       1.2245                 1.4354                 1.9960
 IR Intens:        1.054                  3.295                 14.744
 Frequency:      1320.98                1404.97                1643.79
 Force Cnst:      1.6138                 3.0984                12.5443
 Red. Mass:       1.5697                 2.6641                 7.8796
 IR Intens:       20.284                  2.112                 26.713
 Frequency:      3158.94                3171.06                3183.40
 Force Cnst:      6.4119                 6.4567                 6.5328
 Red. Mass:       1.0906                 1.0898                 1.0941
 IR Intens:       23.097                  6.733                 17.007
 Frequency:      3190.94                3265.51                3273.26
 Force Cnst:      6.5576                 6.8786                 6.9201
 Red. Mass:       1.0931                 1.0948                 1.0962
 IR Intens:       17.571                  0.530                  0.732

 STANDARD THERMODYNAMIC QUANTITIES AT   298.15 K  AND     1.00 ATM

   This Molecule has  1 Imaginary Frequencies
   Zero point vibrational energy:       62.764 kcal/mol

   Atom    1 Element C  Has Mass   12.00000
   Atom    2 Element C  Has Mass   12.00000
   Atom    3 Element C  Has Mass   12.00000
   Atom    4 Element C  Has Mass   12.00000
   Atom    5 Element C  Has Mass   12.00000
   Atom    6 Element N  Has Mass   14.00307
   Atom    7 Element H  Has Mass    1.00783
   Atom    8 Element H  Has Mass    1.00783
   Atom    9 Element H  Has Mass    1.00783
   Atom   10 Element H  Has Mass    1.00783
   Atom   11 Element H  Has Mass    1.00783
   Atom   12 Element C  Has Mass   12.00000
   Atom   13 Element H  Has Mass    1.00783
   Molecular Mass:    92.050050 amu
   Principal axes and moments of inertia in amu*Bohr^2:
                             1           2           3
    Eigenvalues --      377.24005   457.92028   570.73817
          X               0.08169     0.99632     0.02612
          Y               0.99512    -0.08299     0.05340
          Z              -0.05537    -0.02163     0.99823
   Rotational Symmetry Number is   1
   The Molecule is an Asymmetric Top
   Translational Enthalpy:        0.889 kcal/mol
   Rotational Enthalpy:           0.889 kcal/mol
   Vibrational Enthalpy:         64.210 kcal/mol
   gas constant (RT):             0.592 kcal/mol
   Translational Entropy:        39.471  cal/mol.K
   Rotational Entropy:           26.091  cal/mol.K
   Vibrational Entropy:           6.861  cal/mol.K

   Total Enthalpy:               66.580 kcal/mol
   Total Entropy:                72.424  cal/mol.K

 Total job time:  655.83s(wall), 563.76s(cpu)
        *  Thank you very much for using Q-Chem.  Have a nice day.  *
