 Q-Chem 5.0, Q-Chem, Inc., Pleasanton, CA (2017)
 Q-Chem 5.0.2 for Intel X86 EM64T Linux

User input:
--------------------------------------------------------------
$molecule
0 2
C        1.3236819210    0.2417502468    0.1870109424
C        0.8968014870   -0.9569624109   -0.5111648071
C       -0.4829110703   -0.9836692483   -0.5218132920
C       -1.0697564635    0.2903088563    0.0371545080
C       -0.3834153954    1.5147167270   -0.4650887790
N        0.8903593883    1.5006483408   -0.3283440732
H        2.3610947572    0.2876659382    0.5516128745
H        1.5565147083   -1.8007840732   -0.6850016178
H       -1.0953970259   -1.8370103331   -0.8015077910
H       -2.1696283982    0.3469946855    0.0791026760
H       -0.9013856611    2.3968962641   -0.8340090100
C       -0.3044450242   -0.1470860876    1.2828278108
H       -0.6641609981   -0.8741679949    2.0111065075
$end

$rem
method                b3lyp
basis                 6-31g(d)
unrestricted          true
symmetry              off
sym_ignore            true
incdft                false
incfock               0
scf_convergence       6
thresh                14
jobtype               sp
scf_guess             read
scf_algorithm         diis
max_scf_cycles        100
stability_analysis    true
max_cis_cycles        100
cis_n_roots           4
$end

--------------------------------------------------------------

             Standard Nuclear Orientation (Angstroms)
    I     Atom           X                Y                Z
 ----------------------------------------------------------------
    1      C       1.3236819210     0.2417502468     0.1870109424
    2      C       0.8968014870    -0.9569624109    -0.5111648071
    3      C      -0.4829110703    -0.9836692483    -0.5218132920
    4      C      -1.0697564635     0.2903088563     0.0371545080
    5      C      -0.3834153954     1.5147167270    -0.4650887790
    6      N       0.8903593883     1.5006483408    -0.3283440732
    7      H       2.3610947572     0.2876659382     0.5516128745
    8      H       1.5565147083    -1.8007840732    -0.6850016178
    9      H      -1.0953970259    -1.8370103331    -0.8015077910
   10      H      -2.1696283982     0.3469946855     0.0791026760
   11      H      -0.9013856611     2.3968962641    -0.8340090100
   12      C      -0.3044450242    -0.1470860876     1.2828278108
   13      H      -0.6641609981    -0.8741679949     2.0111065075
 ----------------------------------------------------------------

    2    -286.7815374530      4.71E-09 Convergence criterion met
 Total energy in the final basis set = -286.78153745

         TDDFT/TDA Excitation Energies
 ---------------------------------------------------

 Excited state   1: excitation energy (eV) =    1.1160
 Total energy for state  1:                  -286.74052425 au
    <S**2>     :  0.7811
    Trans. Mom.: -0.0833 X  -0.0069 Y   0.0902 Z
    Strength   :     0.0004131174
    S(  1) --> V(  1) amplitude =  0.9856 alpha

 Excited state   2: excitation energy (eV) =    2.6496
 Total energy for state  2:                  -286.68416532 au
    <S**2>     :  0.8198
    Trans. Mom.: -0.1712 X   0.1921 Y   0.1741 Z
    Strength   :     0.0062656811
    S(  1) --> V(  2) amplitude =  0.9668 alpha

 Excited state   3: excitation energy (eV) =    3.5734
 Total energy for state  3:                  -286.65021889 au
    <S**2>     :  2.7374
    Trans. Mom.: -0.0167 X  -0.0060 Y  -0.0201 Z
    Strength   :     0.0000630473
    D( 23) --> V(  1) amplitude = -0.2052 alpha
    D( 24) --> V(  1) amplitude =  0.6249 alpha
    D( 24) --> S(  1) amplitude =  0.6985 beta

 Excited state   4: excitation energy (eV) =    3.9973
 Total energy for state  4:                  -286.63463808 au
    <S**2>     :  0.9122
    Trans. Mom.: -0.0822 X   0.0327 Y   0.1310 Z
    Strength   :     0.0024478764
    S(  1) --> V(  3) amplitude =  0.9317 alpha
    D( 22) --> V(  1) amplitude = -0.1522 beta

 ---------------------------------------------------

                    Orbital Energies (a.u.)
 --------------------------------------------------------------

 Alpha MOs
 -- Occupied --
-14.328 -10.242 -10.226 -10.217 -10.216 -10.208 -10.187  -0.953
 -0.832  -0.753  -0.661  -0.608  -0.588  -0.534  -0.493  -0.459
 -0.440  -0.418  -0.393  -0.378  -0.332  -0.291  -0.268  -0.255
 -0.139

 Beta MOs
 -- Occupied --
-14.327 -10.243 -10.226 -10.218 -10.217 -10.194 -10.180  -0.951
 -0.826  -0.748  -0.652  -0.606  -0.572  -0.531  -0.488  -0.456
 -0.437  -0.415  -0.391  -0.377  -0.320  -0.278  -0.263  -0.243

          Ground-State Mulliken Net Atomic Charges

     Atom                 Charge (a.u.)    Spin (a.u.)
  --------------------------------------------------------
      1 C                    -0.058057      -0.119553
      2 C                    -0.074796       0.450015
      3 C                    -0.107178      -0.194098
      4 C                    -0.236443      -0.023622
      5 C                     0.120372      -0.020837
      6 N                    -0.330362       0.016408
      7 H                     0.144504       0.004582
      8 H                     0.142292      -0.024571
      9 H                     0.152268       0.012760
     10 H                     0.142155       0.010256
     11 H                     0.153017       0.001626
     12 C                    -0.200496       0.927847
     13 H                     0.152723      -0.040813
  --------------------------------------------------------
  Sum of atomic charges =    -0.000000

                    Cartesian Multipole Moments
 -----------------------------------------------------------------
    Charge (ESU x 10^10)
                -0.0000
    Dipole Moment (Debye)
         X      -1.6647      Y      -1.7510      Z      -0.0804
       Tot       2.4174
    Quadrupole Moments (Debye-Ang)
        XX     -37.4983     XY      -3.2548     YY     -40.9898
        XZ       1.3944     YZ      -0.3789     ZZ     -42.8351

 Total job time:  130.26s(wall), 83.84s(cpu)
        *  Thank you very much for using Q-Chem.  Have a nice day.  *
