 Q-Chem 5.0, Q-Chem, Inc., Pleasanton, CA (2017)
 Q-Chem 5.0.2 for Intel X86 EM64T Linux

User input:
--------------------------------------------------------------
$molecule
0 2
C        1.1519393712    0.1575589660    0.4096546565
C        0.8932461612   -0.9744926528   -0.5772143052
C       -0.5038962819   -1.0158898259   -0.4845049864
C       -1.0888692322    0.2958265697    0.0500971271
C       -0.3591797694    1.4948604870   -0.5058267151
N        0.9031194744    1.4587618637   -0.2961867868
H        2.0945588588    0.1616069189    0.9560764059
H        1.5770335939   -1.6099373511   -1.1225553809
H       -1.1647746255   -1.8264107622   -0.7834626945
H       -2.1665736053    0.3174135797    0.1963239787
H       -0.8278259317    2.2907778411   -1.0824328366
C       -0.1738789022   -0.1469041903    1.1472746208
H       -0.3775468863   -0.6238705331    2.0946428655
$end

$rem
method                b3lyp
basis                 6-31+g(d,p)
unrestricted          true
symmetry              off
sym_ignore            true
incdft                false
incfock               0
scf_convergence       6
thresh                14
jobtype               sp
scf_guess             read
scf_algorithm         diis
max_scf_cycles        100
stability_analysis    true
max_cis_cycles        100
cis_n_roots           4
$end

--------------------------------------------------------------

             Standard Nuclear Orientation (Angstroms)
    I     Atom           X                Y                Z
 ----------------------------------------------------------------
    1      C       1.1519393712     0.1575589660     0.4096546565
    2      C       0.8932461612    -0.9744926528    -0.5772143052
    3      C      -0.5038962819    -1.0158898259    -0.4845049864
    4      C      -1.0888692322     0.2958265697     0.0500971271
    5      C      -0.3591797694     1.4948604870    -0.5058267151
    6      N       0.9031194744     1.4587618637    -0.2961867868
    7      H       2.0945588588     0.1616069189     0.9560764059
    8      H       1.5770335939    -1.6099373511    -1.1225553809
    9      H      -1.1647746255    -1.8264107622    -0.7834626945
   10      H      -2.1665736053     0.3174135797     0.1963239787
   11      H      -0.8278259317     2.2907778411    -1.0824328366
   12      C      -0.1738789022    -0.1469041903     1.1472746208
   13      H      -0.3775468863    -0.6238705331     2.0946428655
 ----------------------------------------------------------------

    2    -286.8438350603      3.82E-09 Convergence criterion met
 Total energy in the final basis set = -286.84383506

         TDDFT/TDA Excitation Energies
 ---------------------------------------------------

 Excited state   1: excitation energy (eV) =    2.2535
 Total energy for state  1:                  -286.76101970 au
    <S**2>     :  0.7804
    Trans. Mom.:  0.1541 X   0.0902 Y  -0.3632 Z
    Strength   :     0.0090421966
    S(  1) --> V(  1) amplitude =  0.9576 alpha
    S(  1) --> V(  2) amplitude = -0.1939 alpha

 Excited state   2: excitation energy (eV) =    2.7136
 Total energy for state  2:                  -286.74411311 au
    <S**2>     :  0.7845
    Trans. Mom.: -0.1308 X   0.4100 Y   0.1497 Z
    Strength   :     0.0138041084
    S(  1) --> V(  1) amplitude =  0.2256 alpha
    S(  1) --> V(  2) amplitude =  0.9425 alpha

 Excited state   3: excitation energy (eV) =    3.2574
 Total energy for state  3:                  -286.72412767 au
    <S**2>     :  0.7883
    Trans. Mom.: -0.0795 X  -0.0719 Y  -0.2456 Z
    Strength   :     0.0057285942
    S(  1) --> V(  3) amplitude =  0.9821 alpha

 Excited state   4: excitation energy (eV) =    3.8832
 Total energy for state  4:                  -286.70112865 au
    <S**2>     :  0.7883
    Trans. Mom.: -0.0565 X  -0.0341 Y   0.0917 Z
    Strength   :     0.0012151501
    S(  1) --> V(  4) amplitude =  0.9598 alpha
    S(  1) --> V(  5) amplitude =  0.2231 alpha

 ---------------------------------------------------

                    Orbital Energies (a.u.)
 --------------------------------------------------------------

 Alpha MOs
 -- Occupied --
-14.334 -10.233 -10.231 -10.229 -10.226 -10.223 -10.199  -0.969
 -0.851  -0.750  -0.690  -0.601  -0.587  -0.546  -0.524  -0.475
 -0.435  -0.419  -0.409  -0.386  -0.352  -0.307  -0.286  -0.266
 -0.153

 Beta MOs
 -- Occupied --
-14.334 -10.236 -10.232 -10.228 -10.225 -10.214 -10.190  -0.966
 -0.845  -0.743  -0.680  -0.597  -0.578  -0.543  -0.516  -0.469
 -0.431  -0.414  -0.407  -0.384  -0.346  -0.292  -0.276  -0.262

          Ground-State Mulliken Net Atomic Charges

     Atom                 Charge (a.u.)    Spin (a.u.)
  --------------------------------------------------------
      1 C                     0.022826      -0.124763
      2 C                    -0.140488       0.736061
      3 C                    -0.134066      -0.234308
      4 C                    -0.023812      -0.028079
      5 C                    -0.063514       0.042013
      6 N                    -0.207616      -0.002224
      7 H                     0.130557       0.009020
      8 H                     0.138369      -0.028008
      9 H                     0.140271       0.013303
     10 H                     0.131619       0.004035
     11 H                     0.134711       0.001297
     12 C                    -0.277770       0.640760
     13 H                     0.148914      -0.029107
  --------------------------------------------------------
  Sum of atomic charges =     0.000000

                    Cartesian Multipole Moments
 -----------------------------------------------------------------
    Charge (ESU x 10^10)
                 0.0000
    Dipole Moment (Debye)
         X      -2.1833      Y      -1.8617      Z       0.5977
       Tot       2.9309
    Quadrupole Moments (Debye-Ang)
        XX     -39.7421     XY      -3.7690     YY     -44.1251
        XZ       1.9909     YZ       0.2672     ZZ     -41.5561

 Total job time:  295.19s(wall), 205.18s(cpu)
        *  Thank you very much for using Q-Chem.  Have a nice day.  *
