 Q-Chem 5.0, Q-Chem, Inc., Pleasanton, CA (2017)
 Q-Chem 5.0.2 for Intel X86 EM64T Linux

User input:
--------------------------------------------------------------
$molecule
0 2
C        1.4857242514    0.1403985435   -1.0273985024
C        0.3818308775   -1.5373736536    1.3003364506
C       -0.8735670675   -1.1854072571    1.0586365777
C       -1.3831562798    0.0386825458    0.4438302619
C       -0.6664499257    1.0357765302   -0.1158438988
N        0.7426315719    1.1230951540   -0.1453585458
H        1.7994299597   -0.8867779077   -0.9658731112
H        0.8590313472   -2.3840913248    1.7794556900
H       -1.6541406774   -1.8916486756    1.3742144719
H       -2.4631164119    0.1614477774    0.4627803502
H       -1.1821178147    1.9191284392   -0.4938414681
C        1.3845826537    1.3275891906   -1.4932286479
H        1.5693175161    2.1391806379   -2.1777096282
$end

$rem
method                b3lyp
basis                 6-31g(d)
unrestricted          true
symmetry              off
sym_ignore            true
incdft                false
incfock               0
scf_convergence       8
thresh                14
jobtype               opt
scf_guess             read
scf_algorithm         diis
max_scf_cycles        100
geom_opt_tol_gradient 600
geom_opt_tol_displacement 2400
geom_opt_tol_energy   200
geom_opt_max_cycles   100
$end

--------------------------------------------------------------

    2    -286.7239725374      2.02E-09 Convergence criterion met
 Total energy in the final basis set = -286.72397254

             Standard Nuclear Orientation (Angstroms)
    I     Atom           X                Y                Z
 ----------------------------------------------------------------
    1      C       1.4863192062     0.1406606863    -1.0286135280
    2      C       0.3809602455    -1.5380151844     1.3020756094
    3      C      -0.8738853226    -1.1862982136     1.0579198925
    4      C      -1.3828425518     0.0383928244     0.4436233411
    5      C      -0.6656429005     1.0358092910    -0.1151682030
    6      N       0.7434505474     1.1226951335    -0.1452462790
    7      H       1.8010575958    -0.8863426464    -0.9689231685
    8      H       0.8579522681    -2.3839039604     1.7826762993
    9      H      -1.6552243659    -1.8915313962     1.3739955804
   10      H      -2.4628365971     0.1610955363     0.4621284219
   11      H      -1.1814467245     1.9192426338    -0.4927514895
   12      C       1.3841901077     1.3281022475    -1.4937154850
   13      H       1.5679484922     2.1400930481    -2.1780009917
 ----------------------------------------------------------------

   10    -286.7239731066      7.44E-09 Convergence criterion met
 Total energy in the final basis set = -286.72397311
 Final energy is   -286.723973106559
 **  OPTIMIZATION CONVERGED  **

                    Orbital Energies (a.u.)
 --------------------------------------------------------------

 Alpha MOs
 -- Occupied --
-14.350 -10.239 -10.238 -10.204 -10.196 -10.191 -10.178  -0.969
 -0.799  -0.744  -0.670  -0.596  -0.586  -0.535  -0.494  -0.479
 -0.432  -0.409  -0.381  -0.373  -0.318  -0.302  -0.238  -0.222
 -0.192

 Beta MOs
 -- Occupied --
-14.350 -10.239 -10.238 -10.205 -10.192 -10.181 -10.177  -0.969
 -0.795  -0.736  -0.661  -0.596  -0.577  -0.530  -0.487  -0.473
 -0.429  -0.398  -0.381  -0.371  -0.315  -0.300  -0.233  -0.187

          Ground-State Mulliken Net Atomic Charges

     Atom                 Charge (a.u.)    Spin (a.u.)
  --------------------------------------------------------
      1 C                     0.009967       0.003052
      2 C                    -0.225608       1.057117
      3 C                    -0.133397      -0.163908
      4 C                    -0.116936       0.069426
      5 C                     0.008677      -0.059202
      6 N                    -0.388280      -0.001611
      7 H                     0.179966       0.002082
      8 H                     0.153358       0.005600
      9 H                     0.139324       0.083353
     10 H                     0.122776      -0.002514
     11 H                     0.128635       0.004662
     12 C                    -0.052220       0.000148
     13 H                     0.173738       0.001795
  --------------------------------------------------------
  Sum of atomic charges =    -0.000000

                    Cartesian Multipole Moments
 -----------------------------------------------------------------
    Charge (ESU x 10^10)
                 0.0000
    Dipole Moment (Debye)
         X       0.0326      Y      -0.4534      Z      -1.9132
       Tot       1.9664
    Quadrupole Moments (Debye-Ang)
        XX     -37.7635     XY      -1.2315     YY     -36.2421
        XZ      -3.3383     YZ      -5.6315     ZZ     -39.7656

 Total job time:  16.11s(wall), 45.92s(cpu)
        *  Thank you very much for using Q-Chem.  Have a nice day.  *
