 Q-Chem 5.0, Q-Chem, Inc., Pleasanton, CA (2017)
 Q-Chem 5.0.2 for Intel X86 EM64T Linux

User input:
--------------------------------------------------------------
$molecule
0 2
C        1.5748599053    0.4457949738   -0.0860317622
C        0.8229557593   -0.8160969868    0.1166120050
C       -0.5200598419   -0.9688885888   -0.5830004170
C       -1.1192044585    0.3159568790   -0.0355108530
C       -0.3703706087    1.5798969100   -0.2390095761
N        0.9608892206    1.6152682476   -0.2557641101
H        2.6628065437    0.4376265632   -0.0979064375
H        1.4076710846   -1.7255910359    0.2501101110
H       -0.9239840208   -1.7415043410   -1.2229397507
H       -2.2059505343    0.3777711622   -0.0368483990
H       -0.9048727448    2.5181695490   -0.3803360835
C       -0.5012349421   -0.7476811506    0.8586617756
H       -0.8835053624   -1.2907221814    1.7119634976
$end

$rem
method                b3lyp
basis                 6-31g(d)
unrestricted          true
symmetry              off
sym_ignore            true
incdft                false
incfock               0
scf_convergence       8
thresh                14
jobtype               opt
scf_guess             read
scf_algorithm         diis
max_scf_cycles        100
geom_opt_tol_gradient 600
geom_opt_tol_displacement 2400
geom_opt_tol_energy   200
geom_opt_max_cycles   100
$end

--------------------------------------------------------------

    2    -286.8584556587      8.76E-10 Convergence criterion met
 Total energy in the final basis set = -286.85845566
   10    -286.8584653799      9.67E-09 Convergence criterion met
 Total energy in the final basis set = -286.85846538

             Standard Nuclear Orientation (Angstroms)
    I     Atom           X                Y                Z
 ----------------------------------------------------------------
    1      C       1.5753626449     0.4456029359    -0.0863231391
    2      C       0.8223675614    -0.8151464409     0.1173313030
    3      C      -0.5184678653    -0.9683595421    -0.5828425510
    4      C      -1.1195581909     0.3162116681    -0.0361138767
    5      C      -0.3701672380     1.5788558805    -0.2391568712
    6      N       0.9609187784     1.6141320614    -0.2596467237
    7      H       2.6636063421     0.4389082302    -0.0980286229
    8      H       1.4058762293    -1.7247818792     0.2492764763
    9      H      -0.9200209705    -1.7431433560    -1.2209917697
   10      H      -2.2064799561     0.3793553914    -0.0330974604
   11      H      -0.9039666910     2.5169882349    -0.3780879045
   12      C      -0.5023567816    -0.7463897094     0.8587360011
   13      H      -0.8871138627    -1.2922334743     1.7089451389
 ----------------------------------------------------------------

    8    -286.8584665300      8.34E-09 Convergence criterion met
 Total energy in the final basis set = -286.85846653
 Final energy is   -286.858466529989
 **  OPTIMIZATION CONVERGED  **

                    Orbital Energies (a.u.)
 --------------------------------------------------------------

 Alpha MOs
 -- Occupied --
-14.317 -10.216 -10.216 -10.215 -10.215 -10.215 -10.215  -0.960
 -0.896  -0.750  -0.643  -0.635  -0.589  -0.545  -0.482  -0.471
 -0.465  -0.408  -0.395  -0.365  -0.338  -0.299  -0.298  -0.227
 -0.173

 Beta MOs
 -- Occupied --
-14.320 -10.216 -10.216 -10.213 -10.213 -10.207 -10.207  -0.955
 -0.894  -0.738  -0.631  -0.630  -0.584  -0.542  -0.476  -0.466
 -0.464  -0.405  -0.377  -0.362  -0.322  -0.298  -0.294  -0.227

          Ground-State Mulliken Net Atomic Charges

     Atom                 Charge (a.u.)    Spin (a.u.)
  --------------------------------------------------------
      1 C                     0.076468       0.596893
      2 C                    -0.220883      -0.053334
      3 C                    -0.090276       0.094895
      4 C                    -0.220758      -0.053390
      5 C                     0.076511       0.597277
      6 N                    -0.395292      -0.205334
      7 H                     0.135572      -0.032040
      8 H                     0.142075       0.000517
      9 H                     0.154165      -0.004302
     10 H                     0.142092       0.000517
     11 H                     0.135560      -0.032055
     12 C                    -0.089423       0.094645
     13 H                     0.154189      -0.004289
  --------------------------------------------------------
  Sum of atomic charges =     0.000000

                    Cartesian Multipole Moments
 -----------------------------------------------------------------
    Charge (ESU x 10^10)
                 0.0000
    Dipole Moment (Debye)
         X      -1.5114      Y      -2.5390      Z       0.4084
       Tot       2.9829
    Quadrupole Moments (Debye-Ang)
        XX     -37.7977     XY      -3.6424     YY     -41.8729
        XZ       0.5212     YZ       0.1375     ZZ     -41.2844

 Total job time:  27.01s(wall), 77.30s(cpu)
        *  Thank you very much for using Q-Chem.  Have a nice day.  *
