 Q-Chem 5.0, Q-Chem, Inc., Pleasanton, CA (2017)
 Q-Chem 5.0.2 for Intel X86 EM64T Linux

User input:
--------------------------------------------------------------
$molecule
0 2
C        1.6764250729    0.3747709935   -0.2334392591
C        1.1023141276   -0.8497570868   -0.3105020546
C       -0.3341608134   -1.0624972866   -0.0765829487
C       -1.1528042251    0.3488409284    0.1003397990
C       -0.3194233388    1.5367597442   -0.1509141628
N        0.9692597077    1.5764632583   -0.2118673813
H        2.7519111526    0.4884160752   -0.3297736923
H        1.7067755099   -1.7181395061   -0.5597740924
H       -0.8092292255   -1.8924266244   -0.6022800680
H       -2.1797468596    0.4256591709   -0.2616368981
H       -0.8537414331    2.4642254150   -0.3654143113
C       -0.9122004099   -0.6050758373    1.1836887942
H       -1.6453792659   -1.0872392438    1.8181562759
$end

$rem
method                b3lyp
basis                 6-31+g(d,p)
unrestricted          true
symmetry              off
sym_ignore            true
incdft                false
incfock               0
scf_convergence       6
thresh                14
jobtype               sp
scf_guess             read
scf_algorithm         diis
max_scf_cycles        100
stability_analysis    true
max_cis_cycles        100
cis_n_roots           4
$end

--------------------------------------------------------------

             Standard Nuclear Orientation (Angstroms)
    I     Atom           X                Y                Z
 ----------------------------------------------------------------
    1      C       1.6764250729     0.3747709935    -0.2334392591
    2      C       1.1023141276    -0.8497570868    -0.3105020546
    3      C      -0.3341608134    -1.0624972866    -0.0765829487
    4      C      -1.1528042251     0.3488409284     0.1003397990
    5      C      -0.3194233388     1.5367597442    -0.1509141628
    6      N       0.9692597077     1.5764632583    -0.2118673813
    7      H       2.7519111526     0.4884160752    -0.3297736923
    8      H       1.7067755099    -1.7181395061    -0.5597740924
    9      H      -0.8092292255    -1.8924266244    -0.6022800680
   10      H      -2.1797468596     0.4256591709    -0.2616368981
   11      H      -0.8537414331     2.4642254150    -0.3654143113
   12      C      -0.9122004099    -0.6050758373     1.1836887942
   13      H      -1.6453792659    -1.0872392438     1.8181562759
 ----------------------------------------------------------------

    2    -286.8764952404      2.65E-09 Convergence criterion met
 Total energy in the final basis set = -286.87649524

         TDDFT/TDA Excitation Energies
 ---------------------------------------------------

 Excited state   1: excitation energy (eV) =    2.6888
 Total energy for state  1:                  -286.77768270 au
    <S**2>     :  0.9236
    Trans. Mom.: -0.0745 X  -0.0294 Y   0.0960 Z
    Strength   :     0.0010289473
    D( 24) --> V(  1) amplitude =  0.1672 alpha
    D( 24) --> S(  1) amplitude =  0.9556 beta

 Excited state   2: excitation energy (eV) =    3.1517
 Total energy for state  2:                  -286.76067201 au
    <S**2>     :  2.5519
    Trans. Mom.: -0.0386 X  -0.0191 Y   0.0422 Z
    Strength   :     0.0002807978
    D( 24) --> V(  1) amplitude = -0.5460 alpha
    S(  1) --> V(  1) amplitude =  0.3844 alpha
    D( 24) --> S(  1) amplitude =  0.2257 beta
    D( 24) --> V(  1) amplitude =  0.6700 beta

 Excited state   3: excitation energy (eV) =    3.6411
 Total energy for state  3:                  -286.74268762 au
    <S**2>     :  1.2281
    Trans. Mom.:  0.0486 X  -0.0708 Y   0.0173 Z
    Strength   :     0.0006853807
    D( 23) --> V(  1) amplitude =  0.1978 alpha
    D( 24) --> V(  1) amplitude = -0.3046 alpha
    S(  1) --> V(  1) amplitude = -0.5573 alpha
    D( 23) --> S(  1) amplitude =  0.6895 beta
    D( 23) --> V(  1) amplitude = -0.2231 beta

 Excited state   4: excitation energy (eV) =    3.7477
 Total energy for state  4:                  -286.73876931 au
    <S**2>     :  0.9141
    Trans. Mom.: -0.1976 X  -0.0953 Y   0.2507 Z
    Strength   :     0.0101906704
    D( 23) --> V(  1) amplitude = -0.1550 alpha
    D( 24) --> V(  1) amplitude =  0.2109 alpha
    S(  1) --> V(  1) amplitude =  0.6476 alpha
    D( 23) --> S(  1) amplitude =  0.6781 beta
    D( 24) --> V(  1) amplitude = -0.1614 beta

 ---------------------------------------------------

                    Orbital Energies (a.u.)
 --------------------------------------------------------------

 Alpha MOs
 -- Occupied --
-14.337 -10.240 -10.235 -10.232 -10.230 -10.217 -10.206  -0.946
 -0.878  -0.776  -0.677  -0.651  -0.579  -0.540  -0.500  -0.492
 -0.460  -0.435  -0.387  -0.381  -0.370  -0.309  -0.267  -0.241
 -0.228

 Beta MOs
 -- Occupied --
-14.337 -10.239 -10.235 -10.232 -10.218 -10.216 -10.205  -0.944
 -0.869  -0.774  -0.669  -0.649  -0.565  -0.535  -0.497  -0.483
 -0.456  -0.432  -0.386  -0.379  -0.362  -0.300  -0.263  -0.236

          Ground-State Mulliken Net Atomic Charges

     Atom                 Charge (a.u.)    Spin (a.u.)
  --------------------------------------------------------
      1 C                    -0.252055      -0.037230
      2 C                     0.077292       0.051681
      3 C                    -0.144196      -0.029781
      4 C                    -0.018989       0.029722
      5 C                    -0.051758      -0.051456
      6 N                    -0.182058       0.017911
      7 H                     0.124881       0.000893
      8 H                     0.133092       0.002909
      9 H                     0.144265       0.016537
     10 H                     0.144236       0.023685
     11 H                     0.128281       0.005031
     12 C                    -0.251570       0.991989
     13 H                     0.148579      -0.021892
  --------------------------------------------------------
  Sum of atomic charges =     0.000000

                    Cartesian Multipole Moments
 -----------------------------------------------------------------
    Charge (ESU x 10^10)
                 0.0000
    Dipole Moment (Debye)
         X      -2.2009      Y      -2.2103      Z      -0.2157
       Tot       3.1266
    Quadrupole Moments (Debye-Ang)
        XX     -38.0807     XY      -3.3164     YY     -42.9273
        XZ      -0.6645     YZ       0.4385     ZZ     -43.8711

 Total job time:  261.66s(wall), 194.71s(cpu)
        *  Thank you very much for using Q-Chem.  Have a nice day.  *
