 Q-Chem 5.0, Q-Chem, Inc., Pleasanton, CA (2017)
 Q-Chem 5.0.2 for Intel X86 EM64T Linux

User input:
--------------------------------------------------------------
$molecule
0 2
C        1.5984347897    0.3885287601   -0.1739450571
C        0.9424011772   -0.8446051493   -0.1757696699
C       -0.5066546816   -0.9919532158   -0.4031800304
C       -1.1200555247    0.3449233748    0.0855975749
C       -0.3459791143    1.5639288277   -0.2760550508
N        0.9495447869    1.5831455464   -0.3611205073
H        2.6661205843    0.4391808047    0.0133393687
H        1.5248361562   -1.7547741179   -0.0538157379
H       -0.9973499013   -1.7339315185   -1.0258078735
H       -2.2037119529    0.4310588253    0.0006652124
H       -0.8907344675    2.4711123322   -0.5366950965
C       -0.6326716826   -0.6962835615    1.0151240085
H       -0.9946935826   -1.2082432875    1.8929751225
$end

$rem
method                b3lyp
basis                 6-31+g(d,p)
unrestricted          true
symmetry              off
sym_ignore            true
incdft                false
incfock               0
scf_convergence       6
thresh                14
jobtype               sp
scf_guess             read
scf_algorithm         diis
max_scf_cycles        100
stability_analysis    true
max_cis_cycles        100
cis_n_roots           4
$end

--------------------------------------------------------------

             Standard Nuclear Orientation (Angstroms)
    I     Atom           X                Y                Z
 ----------------------------------------------------------------
    1      C       1.5984347897     0.3885287601    -0.1739450571
    2      C       0.9424011772    -0.8446051493    -0.1757696699
    3      C      -0.5066546816    -0.9919532158    -0.4031800304
    4      C      -1.1200555247     0.3449233748     0.0855975749
    5      C      -0.3459791143     1.5639288277    -0.2760550508
    6      N       0.9495447869     1.5831455464    -0.3611205073
    7      H       2.6661205843     0.4391808047     0.0133393687
    8      H       1.5248361562    -1.7547741179    -0.0538157379
    9      H      -0.9973499013    -1.7339315185    -1.0258078735
   10      H      -2.2037119529     0.4310588253     0.0006652124
   11      H      -0.8907344675     2.4711123322    -0.5366950965
   12      C      -0.6326716826    -0.6962835615     1.0151240085
   13      H      -0.9946935826    -1.2082432875     1.8929751225
 ----------------------------------------------------------------

    2    -286.8561843434      1.52E-09 Convergence criterion met
 Total energy in the final basis set = -286.85618434

         TDDFT/TDA Excitation Energies
 ---------------------------------------------------

 Excited state   1: excitation energy (eV) =    2.3574
 Total energy for state  1:                  -286.76955288 au
    <S**2>     :  0.8198
    Trans. Mom.: -0.0880 X   0.3101 Y  -0.0611 Z
    Strength   :     0.0062169188
    S(  1) --> V(  1) amplitude =  0.9246 alpha
    D( 24) --> S(  1) amplitude =  0.3241 beta

 Excited state   2: excitation energy (eV) =    3.2714
 Total energy for state  2:                  -286.73596267 au
    <S**2>     :  0.8758
    Trans. Mom.: -0.1807 X  -0.3485 Y   0.1867 Z
    Strength   :     0.0151425263
    S(  1) --> V(  1) amplitude = -0.2708 alpha
    D( 23) --> S(  1) amplitude = -0.2676 beta
    D( 24) --> S(  1) amplitude =  0.8892 beta

 Excited state   3: excitation energy (eV) =    3.7753
 Total energy for state  3:                  -286.71744425 au
    <S**2>     :  0.9651
    Trans. Mom.: -0.1618 X  -0.4927 Y   0.1764 Z
    Strength   :     0.0277554889
    S(  1) --> V(  1) amplitude = -0.1770 alpha
    S(  1) --> V(  2) amplitude =  0.1637 alpha
    D( 23) --> S(  1) amplitude =  0.8654 beta
    D( 24) --> S(  1) amplitude =  0.1578 beta
    D( 24) --> V(  1) amplitude = -0.2262 beta

 Excited state   4: excitation energy (eV) =    3.9053
 Total energy for state  4:                  -286.71266768 au
    <S**2>     :  0.8170
    Trans. Mom.:  0.0869 X   0.1064 Y  -0.2059 Z
    Strength   :     0.0058615590
    S(  1) --> V(  2) amplitude =  0.9716 alpha
    D( 23) --> S(  1) amplitude = -0.1555 beta

 ---------------------------------------------------

                    Orbital Energies (a.u.)
 --------------------------------------------------------------

 Alpha MOs
 -- Occupied --
-14.335 -10.233 -10.229 -10.229 -10.227 -10.226 -10.221  -0.957
 -0.894  -0.769  -0.661  -0.650  -0.590  -0.546  -0.494  -0.491
 -0.473  -0.434  -0.390  -0.380  -0.355  -0.311  -0.277  -0.259
 -0.175

 Beta MOs
 -- Occupied --
-14.337 -10.231 -10.229 -10.228 -10.228 -10.216 -10.215  -0.953
 -0.889  -0.763  -0.655  -0.644  -0.577  -0.542  -0.488  -0.486
 -0.470  -0.431  -0.380  -0.376  -0.349  -0.306  -0.264  -0.248

          Ground-State Mulliken Net Atomic Charges

     Atom                 Charge (a.u.)    Spin (a.u.)
  --------------------------------------------------------
      1 C                    -0.194174       0.427718
      2 C                    -0.084048      -0.193793
      3 C                     0.052016      -0.001417
      4 C                    -0.135710      -0.048246
      5 C                    -0.038468       0.277299
      6 N                    -0.192590      -0.095543
      7 H                     0.126859      -0.023053
      8 H                     0.140477       0.010886
      9 H                     0.139504       0.000527
     10 H                     0.137576       0.019271
     11 H                     0.124898      -0.013500
     12 C                    -0.219754       0.661950
     13 H                     0.143415      -0.022099
  --------------------------------------------------------
  Sum of atomic charges =    -0.000000

                    Cartesian Multipole Moments
 -----------------------------------------------------------------
    Charge (ESU x 10^10)
                -0.0000
    Dipole Moment (Debye)
         X      -1.8157      Y      -2.4644      Z       0.2356
       Tot       3.0701
    Quadrupole Moments (Debye-Ang)
        XX     -38.8901     XY      -4.0598     YY     -42.8305
        XZ       0.8457     YZ       0.4956     ZZ     -43.2586

 Total job time:  307.84s(wall), 197.48s(cpu)
        *  Thank you very much for using Q-Chem.  Have a nice day.  *
