 Q-Chem 5.0, Q-Chem, Inc., Pleasanton, CA (2017)
 Q-Chem 5.0.2 for Intel X86 EM64T Linux

User input:
--------------------------------------------------------------
$molecule
0 2
C        1.5976126135    0.3885763218   -0.1776276323
C        0.9439492644   -0.8434021693   -0.1762959441
C       -0.5063964974   -0.9918125520   -0.3997981535
C       -1.1186606020    0.3438074447    0.0867999488
C       -0.3439361026    1.5629941426   -0.2745452847
N        0.9495767335    1.5835619161   -0.3633053957
H        2.6663765629    0.4406842054    0.0082255959
H        1.5253027802   -1.7541158617   -0.0499286249
H       -0.9967914044   -1.7321770011   -1.0261342142
H       -2.2025638523    0.4285507254   -0.0013131561
H       -0.8899574730    2.4711514814   -0.5327877135
C       -0.6308340286   -0.6970522058    1.0169265604
H       -1.0041914075   -1.2086788270    1.8910962777
$end

$rem
method                b3lyp
basis                 6-31+g(d,p)
unrestricted          true
symmetry              off
sym_ignore            true
incdft                false
incfock               0
scf_convergence       8
thresh                14
jobtype               freq
scf_guess             read
scf_algorithm         diis
max_scf_cycles        100
$end

--------------------------------------------------------------

             Standard Nuclear Orientation (Angstroms)
    I     Atom           X                Y                Z
 ----------------------------------------------------------------
    1      C       1.5976126135     0.3885763218    -0.1776276323
    2      C       0.9439492644    -0.8434021693    -0.1762959441
    3      C      -0.5063964974    -0.9918125520    -0.3997981535
    4      C      -1.1186606020     0.3438074447     0.0867999488
    5      C      -0.3439361026     1.5629941426    -0.2745452847
    6      N       0.9495767335     1.5835619161    -0.3633053957
    7      H       2.6663765629     0.4406842054     0.0082255959
    8      H       1.5253027802    -1.7541158617    -0.0499286249
    9      H      -0.9967914044    -1.7321770011    -1.0261342142
   10      H      -2.2025638523     0.4285507254    -0.0013131561
   11      H      -0.8899574730     2.4711514814    -0.5327877135
   12      C      -0.6308340286    -0.6970522058     1.0169265604
   13      H      -1.0041914075    -1.2086788270     1.8910962777
 ----------------------------------------------------------------

    2    -286.8561657850      2.51E-09 Convergence criterion met
 Total energy in the final basis set = -286.85616578

                    Orbital Energies (a.u.)
 --------------------------------------------------------------

 Alpha MOs
 -- Occupied --
-14.336 -10.234 -10.229 -10.229 -10.227 -10.226 -10.221  -0.958
 -0.895  -0.770  -0.661  -0.650  -0.590  -0.546  -0.494  -0.491
 -0.474  -0.434  -0.390  -0.380  -0.355  -0.311  -0.278  -0.259
 -0.175

 Beta MOs
 -- Occupied --
-14.337 -10.231 -10.230 -10.228 -10.228 -10.216 -10.215  -0.954
 -0.890  -0.764  -0.655  -0.644  -0.577  -0.542  -0.488  -0.486
 -0.471  -0.431  -0.380  -0.376  -0.349  -0.306  -0.264  -0.248

          Ground-State Mulliken Net Atomic Charges

     Atom                 Charge (a.u.)    Spin (a.u.)
  --------------------------------------------------------
      1 C                    -0.194418       0.425658
      2 C                    -0.083204      -0.192776
      3 C                     0.052852      -0.002520
      4 C                    -0.137606      -0.046818
      5 C                    -0.036182       0.272142
      6 N                    -0.192008      -0.094130
      7 H                     0.126771      -0.022976
      8 H                     0.140655       0.010783
      9 H                     0.139483       0.000503
     10 H                     0.137574       0.019146
     11 H                     0.124718      -0.013283
     12 C                    -0.221966       0.665942
     13 H                     0.143329      -0.021671
  --------------------------------------------------------
  Sum of atomic charges =    -0.000000

                    Cartesian Multipole Moments
 -----------------------------------------------------------------
    Charge (ESU x 10^10)
                -0.0000
    Dipole Moment (Debye)
         X      -1.8175      Y      -2.4517      Z       0.2255
       Tot       3.0602
    Quadrupole Moments (Debye-Ang)
        XX     -38.8837     XY      -4.0326     YY     -42.8245
        XZ       0.8445     YZ       0.5078     ZZ     -43.2811

 Frequency:      -614.57                 312.10                 325.40
 Force Cnst:      1.0712                 0.1530                 0.1957
 Red. Mass:       4.8137                 2.6659                 3.1363
 IR Intens:       21.763                  1.846                  2.466
 Frequency:       476.99                 528.79                 570.65
 Force Cnst:      0.1920                 0.9301                 0.6344
 Red. Mass:       1.4326                 5.6455                 3.3067
 IR Intens:       43.443                  5.155                  8.707
 Frequency:       675.80                 751.88                 774.76
 Force Cnst:      0.9168                 0.6915                 0.6190
 Red. Mass:       3.4072                 2.0762                 1.7503
 IR Intens:        8.945                 26.091                 25.413
 Frequency:       811.69                 845.28                 902.43
 Force Cnst:      0.5668                 0.7271                 0.8254
 Red. Mass:       1.4602                 1.7273                 1.7202
 IR Intens:        5.417                  6.166                  6.490
 Frequency:       917.08                 960.98                 975.47
 Force Cnst:      0.9159                 0.9153                 1.8543
 Red. Mass:       1.8482                 1.6823                 3.3075
 IR Intens:        9.508                  7.861                  7.455
 Frequency:       986.68                1042.07                1058.41
 Force Cnst:      0.9734                 0.8542                 2.2830
 Red. Mass:       1.6970                 1.3351                 3.4590
 IR Intens:       19.262                  0.628                  2.689
 Frequency:      1099.80                1179.70                1226.05
 Force Cnst:      1.2249                 1.3587                 1.3416
 Red. Mass:       1.7188                 1.6571                 1.5148
 IR Intens:        8.542                 20.966                  0.185
 Frequency:      1298.56                1375.22                1388.80
 Force Cnst:      1.5026                 2.3496                 2.3152
 Red. Mass:       1.5124                 2.1086                 2.0373
 IR Intens:        2.424                  2.120                 10.458
 Frequency:      1425.70                1464.19                1594.28
 Force Cnst:      2.2676                 3.1544                 7.7947
 Red. Mass:       1.8934                 2.4973                 5.2050
 IR Intens:        1.715                  5.249                 22.956
 Frequency:      3124.61                3145.10                3169.22
 Force Cnst:      6.2467                 6.3530                 6.4589
 Red. Mass:       1.0859                 1.0901                 1.0914
 IR Intens:        7.981                 34.083                 17.412
 Frequency:      3179.21                3199.07                3267.32
 Force Cnst:      6.4764                 6.5942                 6.9048
 Red. Mass:       1.0875                 1.0936                 1.0978
 IR Intens:        6.779                 19.799                  0.421

 STANDARD THERMODYNAMIC QUANTITIES AT   298.15 K  AND     1.00 ATM

   This Molecule has  1 Imaginary Frequencies
   Zero point vibrational energy:       62.977 kcal/mol

   Atom    1 Element C  Has Mass   12.00000
   Atom    2 Element C  Has Mass   12.00000
   Atom    3 Element C  Has Mass   12.00000
   Atom    4 Element C  Has Mass   12.00000
   Atom    5 Element C  Has Mass   12.00000
   Atom    6 Element N  Has Mass   14.00307
   Atom    7 Element H  Has Mass    1.00783
   Atom    8 Element H  Has Mass    1.00783
   Atom    9 Element H  Has Mass    1.00783
   Atom   10 Element H  Has Mass    1.00783
   Atom   11 Element H  Has Mass    1.00783
   Atom   12 Element C  Has Mass   12.00000
   Atom   13 Element H  Has Mass    1.00783
   Molecular Mass:    92.050050 amu
   Principal axes and moments of inertia in amu*Bohr^2:
                             1           2           3
    Eigenvalues --      359.41450   492.38195   727.59035
          X               0.57996     0.79758     0.16588
          Y               0.78294    -0.60196     0.15699
          Z              -0.22506    -0.03883     0.97357
   Rotational Symmetry Number is   1
   The Molecule is an Asymmetric Top
   Translational Enthalpy:        0.889 kcal/mol
   Rotational Enthalpy:           0.889 kcal/mol
   Vibrational Enthalpy:         64.388 kcal/mol
   gas constant (RT):             0.592 kcal/mol
   Translational Entropy:        39.471  cal/mol.K
   Rotational Entropy:           26.357  cal/mol.K
   Vibrational Entropy:           6.613  cal/mol.K

   Total Enthalpy:               66.758 kcal/mol
   Total Entropy:                72.441  cal/mol.K

 Total job time:  632.89s(wall), 543.40s(cpu)
        *  Thank you very much for using Q-Chem.  Have a nice day.  *
