 Q-Chem 5.0, Q-Chem, Inc., Pleasanton, CA (2017)
 Q-Chem 5.0.2 for Intel X86 EM64T Linux

User input:
--------------------------------------------------------------
$molecule
0 2
C        1.5953338844    0.4067361017   -0.1897943789
C        0.9086320669   -0.8397409949   -0.0649906087
C       -0.5126109957   -0.9956759066   -0.4192020483
C       -1.1069925506    0.3330125840    0.0367531990
C       -0.3433821655    1.5702450987   -0.2598141450
N        0.9595827628    1.5926281024   -0.3386283302
H        2.6835607586    0.4311459777   -0.1477095139
H        1.5213434727   -1.7402807548    0.0056334112
H       -0.9667137477   -1.8040614407   -0.9805469258
H       -2.1949569365    0.4108182279   -0.0421480633
H       -0.8847285105    2.5024367666   -0.4149514210
C       -0.5791075294   -0.6885768809    1.0010056585
H       -1.0904739228   -1.1865992606    1.8157054302
$end

$rem
method                b3lyp
basis                 6-31g(d)
unrestricted          true
symmetry              off
sym_ignore            true
incdft                false
incfock               0
scf_convergence       8
thresh                14
jobtype               freq
scf_guess             read
scf_algorithm         diis
max_scf_cycles        100
$end

--------------------------------------------------------------

             Standard Nuclear Orientation (Angstroms)
    I     Atom           X                Y                Z
 ----------------------------------------------------------------
    1      C       1.5953338844     0.4067361017    -0.1897943789
    2      C       0.9086320669    -0.8397409949    -0.0649906087
    3      C      -0.5126109957    -0.9956759066    -0.4192020483
    4      C      -1.1069925506     0.3330125840     0.0367531990
    5      C      -0.3433821655     1.5702450987    -0.2598141450
    6      N       0.9595827628     1.5926281024    -0.3386283302
    7      H       2.6835607586     0.4311459777    -0.1477095139
    8      H       1.5213434727    -1.7402807548     0.0056334112
    9      H      -0.9667137477    -1.8040614407    -0.9805469258
   10      H      -2.1949569365     0.4108182279    -0.0421480633
   11      H      -0.8847285105     2.5024367666    -0.4149514210
   12      C      -0.5791075294    -0.6885768809     1.0010056585
   13      H      -1.0904739228    -1.1865992606     1.8157054302
 ----------------------------------------------------------------

    2    -286.8362367652      2.10E-09 Convergence criterion met
 Total energy in the final basis set = -286.83623677

                    Orbital Energies (a.u.)
 --------------------------------------------------------------

 Alpha MOs
 -- Occupied --
-14.319 -10.227 -10.218 -10.218 -10.215 -10.215 -10.214  -0.950
 -0.889  -0.757  -0.649  -0.640  -0.580  -0.542  -0.482  -0.478
 -0.464  -0.418  -0.389  -0.369  -0.339  -0.307  -0.274  -0.236
 -0.166

 Beta MOs
 -- Occupied --
-14.322 -10.229 -10.216 -10.214 -10.212 -10.212 -10.206  -0.946
 -0.885  -0.748  -0.643  -0.632  -0.571  -0.539  -0.478  -0.472
 -0.461  -0.415  -0.375  -0.364  -0.330  -0.300  -0.264  -0.231

          Ground-State Mulliken Net Atomic Charges

     Atom                 Charge (a.u.)    Spin (a.u.)
  --------------------------------------------------------
      1 C                     0.060389       0.554636
      2 C                    -0.187137      -0.155694
      3 C                    -0.075493       0.057310
      4 C                    -0.213286      -0.037247
      5 C                     0.085324       0.437705
      6 N                    -0.391948      -0.165779
      7 H                     0.138133      -0.030472
      8 H                     0.150192       0.007670
      9 H                     0.151640      -0.003252
     10 H                     0.145357       0.006231
     11 H                     0.136354      -0.023039
     12 C                    -0.158120       0.363330
     13 H                     0.158594      -0.011398
  --------------------------------------------------------
  Sum of atomic charges =    -0.000000

                    Cartesian Multipole Moments
 -----------------------------------------------------------------
    Charge (ESU x 10^10)
                -0.0000
    Dipole Moment (Debye)
         X      -1.5897      Y      -2.4698      Z       0.0889
       Tot       2.9385
    Quadrupole Moments (Debye-Ang)
        XX     -37.3327     XY      -3.6331     YY     -41.4439
        XZ       0.0005     YZ       0.4633     ZZ     -42.1016

 Frequency:      -564.39                 274.08                 357.21
 Force Cnst:      0.9687                 0.1065                 0.3234
 Red. Mass:       5.1612                 2.4055                 4.3020
 IR Intens:       11.499                  0.339                  1.208
 Frequency:       534.56                 593.27                 657.36
 Force Cnst:      1.0874                 0.5854                 0.6183
 Red. Mass:       6.4587                 2.8228                 2.4286
 IR Intens:        3.432                 12.231                 33.857
 Frequency:       669.66                 735.43                 762.76
 Force Cnst:      0.4862                 0.5360                 0.5834
 Red. Mass:       1.8401                 1.6821                 1.7021
 IR Intens:       20.500                 12.596                  2.560
 Frequency:       810.48                 824.98                 887.19
 Force Cnst:      0.6798                 0.5555                 1.5184
 Red. Mass:       1.7565                 1.3852                 3.2743
 IR Intens:       11.865                  5.689                 11.086
 Frequency:       920.53                 978.33                 997.29
 Force Cnst:      0.7347                 0.9950                 1.3865
 Red. Mass:       1.4715                 1.7644                 2.3660
 IR Intens:        0.520                  9.640                  0.691
 Frequency:      1046.60                1051.90                1061.78
 Force Cnst:      1.3565                 1.5077                 0.9502
 Red. Mass:       2.1019                 2.3127                 1.4305
 IR Intens:       24.159                 16.341                  0.172
 Frequency:      1100.20                1187.47                1237.60
 Force Cnst:      1.0680                 1.6435                 1.6928
 Red. Mass:       1.4975                 1.9782                 1.8758
 IR Intens:        8.640                 16.736                  2.244
 Frequency:      1300.19                1331.87                1398.53
 Force Cnst:      1.8697                 2.8008                 1.7573
 Red. Mass:       1.8772                 2.6799                 1.5249
 IR Intens:        1.263                  3.152                  5.673
 Frequency:      1423.27                1481.85                1561.29
 Force Cnst:      2.1498                 2.8879                 4.9405
 Red. Mass:       1.8013                 2.2322                 3.4400
 IR Intens:        0.792                  5.242                 18.373
 Frequency:      3116.28                3151.15                3168.27
 Force Cnst:      6.2203                 6.3587                 6.4331
 Red. Mass:       1.0871                 1.0869                 1.0877
 IR Intens:       15.382                  6.271                 48.512
 Frequency:      3175.32                3214.94                3243.72
 Force Cnst:      6.4974                 6.6464                 6.8056
 Red. Mass:       1.0937                 1.0914                 1.0978
 IR Intens:       12.924                 14.440                  0.271

 STANDARD THERMODYNAMIC QUANTITIES AT   298.15 K  AND     1.00 ATM

   This Molecule has  1 Imaginary Frequencies
   Zero point vibrational energy:       63.266 kcal/mol

   Atom    1 Element C  Has Mass   12.00000
   Atom    2 Element C  Has Mass   12.00000
   Atom    3 Element C  Has Mass   12.00000
   Atom    4 Element C  Has Mass   12.00000
   Atom    5 Element C  Has Mass   12.00000
   Atom    6 Element N  Has Mass   14.00307
   Atom    7 Element H  Has Mass    1.00783
   Atom    8 Element H  Has Mass    1.00783
   Atom    9 Element H  Has Mass    1.00783
   Atom   10 Element H  Has Mass    1.00783
   Atom   11 Element H  Has Mass    1.00783
   Atom   12 Element C  Has Mass   12.00000
   Atom   13 Element H  Has Mass    1.00783
   Molecular Mass:    92.050050 amu
   Principal axes and moments of inertia in amu*Bohr^2:
                             1           2           3
    Eigenvalues --      351.43258   491.09968   722.30850
          X               0.55573     0.81998     0.13707
          Y               0.80453    -0.57198     0.15989
          Z              -0.20951    -0.02142     0.97757
   Rotational Symmetry Number is   1
   The Molecule is an Asymmetric Top
   Translational Enthalpy:        0.889 kcal/mol
   Rotational Enthalpy:           0.889 kcal/mol
   Vibrational Enthalpy:         64.608 kcal/mol
   gas constant (RT):             0.592 kcal/mol
   Translational Entropy:        39.471  cal/mol.K
   Rotational Entropy:           26.325  cal/mol.K
   Vibrational Entropy:           6.288  cal/mol.K

   Total Enthalpy:               66.978 kcal/mol
   Total Entropy:                72.084  cal/mol.K

 Total job time:  293.13s(wall), 255.24s(cpu)
        *  Thank you very much for using Q-Chem.  Have a nice day.  *
