 Q-Chem 5.0, Q-Chem, Inc., Pleasanton, CA (2017)
 Q-Chem 5.0.2 for Intel X86 EM64T Linux

User input:
--------------------------------------------------------------
$molecule
0 2
C        1.5953338844    0.4067361017   -0.1897943789
C        0.9086320669   -0.8397409949   -0.0649906087
C       -0.5126109957   -0.9956759066   -0.4192020483
C       -1.1069925506    0.3330125840    0.0367531990
C       -0.3433821655    1.5702450987   -0.2598141450
N        0.9595827628    1.5926281024   -0.3386283302
H        2.6835607586    0.4311459777   -0.1477095139
H        1.5213434727   -1.7402807548    0.0056334112
H       -0.9667137477   -1.8040614407   -0.9805469258
H       -2.1949569365    0.4108182279   -0.0421480633
H       -0.8847285105    2.5024367666   -0.4149514210
C       -0.5791075294   -0.6885768809    1.0010056585
H       -1.0904739228   -1.1865992606    1.8157054302
$end

$rem
method                b3lyp
basis                 6-31g(d)
unrestricted          true
symmetry              off
sym_ignore            true
incdft                false
incfock               0
scf_convergence       8
thresh                14
jobtype               ts
scf_guess             read
scf_algorithm         diis
max_scf_cycles        100
geom_opt_max_cycles   500
geom_opt_dmax         100
geom_opt_tol_gradient 10
geom_opt_hessian      read
$end

--------------------------------------------------------------

    2    -286.8362367651      8.50E-10 Convergence criterion met
 Total energy in the final basis set = -286.83623677
   14    -286.8356664292      6.60E-09 Convergence criterion met
 Total energy in the final basis set = -286.83566643
   14    -286.8352404806      6.82E-09 Convergence criterion met
 Total energy in the final basis set = -286.83524048
   14    -286.8349251375      7.32E-09 Convergence criterion met
 Total energy in the final basis set = -286.83492514
   14    -286.8346982585      7.68E-09 Convergence criterion met
 Total energy in the final basis set = -286.83469826
   14    -286.8345400434      7.90E-09 Convergence criterion met
 Total energy in the final basis set = -286.83454004
   14    -286.8344337752      8.05E-09 Convergence criterion met
 Total energy in the final basis set = -286.83443378
   14    -286.8343664718      7.97E-09 Convergence criterion met
 Total energy in the final basis set = -286.83436647
   14    -286.8343285883      7.41E-09 Convergence criterion met
 Total energy in the final basis set = -286.83432859
   14    -286.8343126668      6.33E-09 Convergence criterion met
 Total energy in the final basis set = -286.83431267
   14    -286.8343116003      6.13E-09 Convergence criterion met
 Total energy in the final basis set = -286.83431160
   12    -286.8343137434      4.65E-09 Convergence criterion met
 Total energy in the final basis set = -286.83431374
   10    -286.8343140912      5.55E-09 Convergence criterion met
 Total energy in the final basis set = -286.83431409

             Standard Nuclear Orientation (Angstroms)
    I     Atom           X                Y                Z
 ----------------------------------------------------------------
    1      C       1.5976126135     0.3885763218    -0.1776276323
    2      C       0.9439492644    -0.8434021693    -0.1762959441
    3      C      -0.5063964974    -0.9918125520    -0.3997981535
    4      C      -1.1186606020     0.3438074447     0.0867999488
    5      C      -0.3439361026     1.5629941426    -0.2745452847
    6      N       0.9495767335     1.5835619161    -0.3633053957
    7      H       2.6663765629     0.4406842054     0.0082255959
    8      H       1.5253027802    -1.7541158617    -0.0499286249
    9      H      -0.9967914044    -1.7321770011    -1.0261342142
   10      H      -2.2025638523     0.4285507254    -0.0013131561
   11      H      -0.8899574730     2.4711514814    -0.5327877135
   12      C      -0.6308340286    -0.6970522058     1.0169265604
   13      H      -1.0041914075    -1.2086788270     1.8910962777
 ----------------------------------------------------------------

    8    -286.8343141056      5.63E-09 Convergence criterion met
 Total energy in the final basis set = -286.83431411
 Final energy is   -286.834314105584
 **  OPTIMIZATION CONVERGED  **

                    Orbital Energies (a.u.)
 --------------------------------------------------------------

 Alpha MOs
 -- Occupied --
-14.321 -10.223 -10.218 -10.218 -10.217 -10.214 -10.210  -0.945
 -0.883  -0.759  -0.651  -0.640  -0.581  -0.538  -0.484  -0.483
 -0.464  -0.425  -0.380  -0.371  -0.344  -0.300  -0.266  -0.247
 -0.163

 Beta MOs
 -- Occupied --
-14.323 -10.220 -10.219 -10.218 -10.217 -10.205 -10.204  -0.941
 -0.877  -0.753  -0.645  -0.633  -0.568  -0.533  -0.479  -0.476
 -0.461  -0.422  -0.369  -0.367  -0.338  -0.295  -0.252  -0.236

          Ground-State Mulliken Net Atomic Charges

     Atom                 Charge (a.u.)    Spin (a.u.)
  --------------------------------------------------------
      1 C                     0.040103       0.418985
      2 C                    -0.149842      -0.198808
      3 C                    -0.110847       0.028046
      4 C                    -0.196409      -0.039291
      5 C                     0.087156       0.278172
      6 N                    -0.390205      -0.102294
      7 H                     0.137978      -0.023038
      8 H                     0.150944       0.011648
      9 H                     0.151400       0.000328
     10 H                     0.148100       0.019151
     11 H                     0.138033      -0.013383
     12 C                    -0.162652       0.643932
     13 H                     0.156241      -0.023449
  --------------------------------------------------------
  Sum of atomic charges =     0.000000

                    Cartesian Multipole Moments
 -----------------------------------------------------------------
    Charge (ESU x 10^10)
                -0.0000
    Dipole Moment (Debye)
         X      -1.6363      Y      -2.2844      Z       0.2084
       Tot       2.8178
    Quadrupole Moments (Debye-Ang)
        XX     -37.7109     XY      -3.6185     YY     -41.3890
        XZ       0.6838     YZ       0.3515     ZZ     -41.7306

 Total job time:  413.52s(wall), 576.61s(cpu)
        *  Thank you very much for using Q-Chem.  Have a nice day.  *
