 Q-Chem 5.0, Q-Chem, Inc., Pleasanton, CA (2017)
 Q-Chem 5.0.2 for Intel X86 EM64T Linux

User input:
--------------------------------------------------------------
$molecule
0 2
C        1.5984347897    0.3885287601   -0.1739450571
C        0.9424011772   -0.8446051493   -0.1757696699
C       -0.5066546816   -0.9919532158   -0.4031800304
C       -1.1200555247    0.3449233748    0.0855975749
C       -0.3459791143    1.5639288277   -0.2760550508
N        0.9495447869    1.5831455464   -0.3611205073
H        2.6661205843    0.4391808047    0.0133393687
H        1.5248361562   -1.7547741179   -0.0538157379
H       -0.9973499013   -1.7339315185   -1.0258078735
H       -2.2037119529    0.4310588253    0.0006652124
H       -0.8907344675    2.4711123322   -0.5366950965
C       -0.6326716826   -0.6962835615    1.0151240085
H       -0.9946935826   -1.2082432875    1.8929751225
$end

$rem
method                b3lyp
basis                 6-31+g(d,p)
unrestricted          true
symmetry              off
sym_ignore            true
incdft                false
incfock               0
scf_convergence       8
thresh                14
jobtype               freq
scf_guess             read
scf_algorithm         diis
max_scf_cycles        100
$end

--------------------------------------------------------------

             Standard Nuclear Orientation (Angstroms)
    I     Atom           X                Y                Z
 ----------------------------------------------------------------
    1      C       1.5984347897     0.3885287601    -0.1739450571
    2      C       0.9424011772    -0.8446051493    -0.1757696699
    3      C      -0.5066546816    -0.9919532158    -0.4031800304
    4      C      -1.1200555247     0.3449233748     0.0855975749
    5      C      -0.3459791143     1.5639288277    -0.2760550508
    6      N       0.9495447869     1.5831455464    -0.3611205073
    7      H       2.6661205843     0.4391808047     0.0133393687
    8      H       1.5248361562    -1.7547741179    -0.0538157379
    9      H      -0.9973499013    -1.7339315185    -1.0258078735
   10      H      -2.2037119529     0.4310588253     0.0006652124
   11      H      -0.8907344675     2.4711123322    -0.5366950965
   12      C      -0.6326716826    -0.6962835615     1.0151240085
   13      H      -0.9946935826    -1.2082432875     1.8929751225
 ----------------------------------------------------------------

    2    -286.8561843435      9.71E-10 Convergence criterion met
 Total energy in the final basis set = -286.85618434

                    Orbital Energies (a.u.)
 --------------------------------------------------------------

 Alpha MOs
 -- Occupied --
-14.335 -10.233 -10.229 -10.229 -10.227 -10.226 -10.221  -0.957
 -0.894  -0.769  -0.661  -0.650  -0.590  -0.546  -0.494  -0.491
 -0.473  -0.434  -0.390  -0.380  -0.355  -0.311  -0.277  -0.259
 -0.175

 Beta MOs
 -- Occupied --
-14.337 -10.231 -10.229 -10.228 -10.228 -10.216 -10.215  -0.953
 -0.889  -0.763  -0.655  -0.644  -0.577  -0.542  -0.488  -0.486
 -0.470  -0.431  -0.380  -0.376  -0.349  -0.306  -0.264  -0.248

          Ground-State Mulliken Net Atomic Charges

     Atom                 Charge (a.u.)    Spin (a.u.)
  --------------------------------------------------------
      1 C                    -0.194174       0.427718
      2 C                    -0.084048      -0.193793
      3 C                     0.052016      -0.001416
      4 C                    -0.135710      -0.048246
      5 C                    -0.038468       0.277299
      6 N                    -0.192590      -0.095544
      7 H                     0.126859      -0.023053
      8 H                     0.140477       0.010886
      9 H                     0.139504       0.000527
     10 H                     0.137576       0.019271
     11 H                     0.124898      -0.013500
     12 C                    -0.219754       0.661949
     13 H                     0.143415      -0.022099
  --------------------------------------------------------
  Sum of atomic charges =    -0.000000

                    Cartesian Multipole Moments
 -----------------------------------------------------------------
    Charge (ESU x 10^10)
                -0.0000
    Dipole Moment (Debye)
         X      -1.8157      Y      -2.4644      Z       0.2356
       Tot       3.0701
    Quadrupole Moments (Debye-Ang)
        XX     -38.8901     XY      -4.0598     YY     -42.8305
        XZ       0.8457     YZ       0.4956     ZZ     -43.2586

 Frequency:      -615.86                 313.01                 325.39
 Force Cnst:      1.0884                 0.1504                 0.1858
 Red. Mass:       4.8706                 2.6061                 2.9791
 IR Intens:       21.384                  2.334                  2.629
 Frequency:       460.03                 528.97                 570.85
 Force Cnst:      0.1825                 0.9357                 0.6265
 Red. Mass:       1.4639                 5.6758                 3.2632
 IR Intens:       41.836                  4.948                  9.072
 Frequency:       674.82                 747.56                 770.06
 Force Cnst:      0.8919                 0.6939                 0.6191
 Red. Mass:       3.3241                 2.1075                 1.7719
 IR Intens:        9.753                 25.542                 25.161
 Frequency:       810.55                 841.07                 899.86
 Force Cnst:      0.5579                 0.7100                 0.8257
 Red. Mass:       1.4412                 1.7034                 1.7307
 IR Intens:        5.748                  6.093                  6.597
 Frequency:       913.99                 958.85                 974.11
 Force Cnst:      0.9245                 0.9041                 1.8661
 Red. Mass:       1.8784                 1.6690                 3.3378
 IR Intens:        9.104                  7.949                  8.366
 Frequency:       983.20                1039.13                1057.68
 Force Cnst:      0.9801                 0.8482                 2.3187
 Red. Mass:       1.7208                 1.3332                 3.5179
 IR Intens:       17.696                  0.618                  2.746
 Frequency:      1097.81                1176.89                1223.37
 Force Cnst:      1.2167                 1.3493                 1.3484
 Red. Mass:       1.7135                 1.6534                 1.5292
 IR Intens:        8.482                 20.892                  0.284
 Frequency:      1296.19                1370.40                1385.47
 Force Cnst:      1.4995                 2.5497                 2.1383
 Red. Mass:       1.5148                 2.3043                 1.8907
 IR Intens:        2.309                  2.648                 10.034
 Frequency:      1422.43                1460.98                1586.37
 Force Cnst:      2.2893                 3.0649                 7.5371
 Red. Mass:       1.9204                 2.4371                 5.0833
 IR Intens:        1.649                  5.327                 22.631
 Frequency:      3128.73                3152.90                3177.26
 Force Cnst:      6.2641                 6.3838                 6.4861
 Red. Mass:       1.0861                 1.0900                 1.0905
 IR Intens:        9.558                 31.857                 14.173
 Frequency:      3184.05                3206.60                3274.65
 Force Cnst:      6.5048                 6.6215                 6.9358
 Red. Mass:       1.0890                 1.0930                 1.0978
 IR Intens:       10.460                 18.402                  0.611

 STANDARD THERMODYNAMIC QUANTITIES AT   298.15 K  AND     1.00 ATM

   This Molecule has  1 Imaginary Frequencies
   Zero point vibrational energy:       62.920 kcal/mol

   Atom    1 Element C  Has Mass   12.00000
   Atom    2 Element C  Has Mass   12.00000
   Atom    3 Element C  Has Mass   12.00000
   Atom    4 Element C  Has Mass   12.00000
   Atom    5 Element C  Has Mass   12.00000
   Atom    6 Element N  Has Mass   14.00307
   Atom    7 Element H  Has Mass    1.00783
   Atom    8 Element H  Has Mass    1.00783
   Atom    9 Element H  Has Mass    1.00783
   Atom   10 Element H  Has Mass    1.00783
   Atom   11 Element H  Has Mass    1.00783
   Atom   12 Element C  Has Mass   12.00000
   Atom   13 Element H  Has Mass    1.00783
   Molecular Mass:    92.050050 amu
   Principal axes and moments of inertia in amu*Bohr^2:
                             1           2           3
    Eigenvalues --      360.03763   492.28728   727.73963
          X               0.57974     0.79814     0.16396
          Y               0.78357    -0.60129     0.15643
          Z              -0.22344    -0.03778     0.97398
   Rotational Symmetry Number is   1
   The Molecule is an Asymmetric Top
   Translational Enthalpy:        0.889 kcal/mol
   Rotational Enthalpy:           0.889 kcal/mol
   Vibrational Enthalpy:         64.344 kcal/mol
   gas constant (RT):             0.592 kcal/mol
   Translational Entropy:        39.471  cal/mol.K
   Rotational Entropy:           26.358  cal/mol.K
   Vibrational Entropy:           6.679  cal/mol.K

   Total Enthalpy:               66.714 kcal/mol
   Total Entropy:                72.508  cal/mol.K

 Total job time:  624.71s(wall), 542.35s(cpu)
        *  Thank you very much for using Q-Chem.  Have a nice day.  *
