 Q-Chem 5.0, Q-Chem, Inc., Pleasanton, CA (2017)
 Q-Chem 5.0.2 for Intel X86 EM64T Linux

User input:
--------------------------------------------------------------
$molecule
0 2
C        1.6972968151    0.2857779795   -0.3293902075
C        1.1156163233   -0.9746863696   -0.1579400852
C       -0.3344249395   -1.0124754746    0.1093224141
C       -1.1935581559    0.0708540174   -0.5278534516
C       -0.4017701500    1.2410499860    0.0194188745
N        0.9971024879    1.4088652819   -0.2503268309
H        2.7616493263    0.3843098740   -0.5399281754
H        1.6985142330   -1.8883326426   -0.2169491222
H       -0.7991976302   -1.9874999512    0.2381869846
H       -2.1047485443    0.0151375592   -1.1073357752
H       -0.9309030126    2.1898026368    0.0673017701
C       -0.9292891026    0.1350830954    0.9143360449
H       -1.5762876505    0.1321140076    1.7811575598
$end

$rem
method                b3lyp
basis                 6-31+g(d,p)
unrestricted          true
symmetry              off
sym_ignore            true
incdft                false
incfock               0
scf_convergence       8
thresh                14
jobtype               sp
scf_guess             core
scf_guess_mix         5
scf_algorithm         diis
max_scf_cycles        100
$end

--------------------------------------------------------------

             Standard Nuclear Orientation (Angstroms)
    I     Atom           X                Y                Z
 ----------------------------------------------------------------
    1      C       1.6972968151     0.2857779795    -0.3293902075
    2      C       1.1156163233    -0.9746863696    -0.1579400852
    3      C      -0.3344249395    -1.0124754746     0.1093224141
    4      C      -1.1935581559     0.0708540174    -0.5278534516
    5      C      -0.4017701500     1.2410499860     0.0194188745
    6      N       0.9971024879     1.4088652819    -0.2503268309
    7      H       2.7616493263     0.3843098740    -0.5399281754
    8      H       1.6985142330    -1.8883326426    -0.2169491222
    9      H      -0.7991976302    -1.9874999512     0.2381869846
   10      H      -2.1047485443     0.0151375592    -1.1073357752
   11      H      -0.9309030126     2.1898026368     0.0673017701
   12      C      -0.9292891026     0.1350830954     0.9143360449
   13      H      -1.5762876505     0.1321140076     1.7811575598
 ----------------------------------------------------------------

   20    -286.8794406664      6.99E-09 Convergence criterion met
 Total energy in the final basis set = -286.87944067

                    Orbital Energies (a.u.)
 --------------------------------------------------------------

 Alpha MOs
 -- Occupied --
-14.335 -10.239 -10.230 -10.224 -10.223 -10.219 -10.214  -0.973
 -0.888  -0.778  -0.656  -0.637  -0.597  -0.551  -0.499  -0.480
 -0.465  -0.405  -0.401  -0.388  -0.356  -0.305  -0.296  -0.251
 -0.205

 Beta MOs
 -- Occupied --
-14.326 -10.240 -10.231 -10.222 -10.222 -10.221 -10.205  -0.966
 -0.875  -0.765  -0.645  -0.636  -0.591  -0.549  -0.498  -0.474
 -0.459  -0.399  -0.386  -0.385  -0.338  -0.299  -0.282  -0.242

          Ground-State Mulliken Net Atomic Charges

     Atom                 Charge (a.u.)    Spin (a.u.)
  --------------------------------------------------------
      1 C                    -0.319749      -0.240950
      2 C                     0.266167       0.708583
      3 C                    -0.423909      -0.070456
      4 C                     0.183405       0.093638
      5 C                    -0.622921      -0.037839
      6 N                    -0.069786       0.484437
      7 H                     0.124856       0.007422
      8 H                     0.131400      -0.032356
      9 H                     0.132788       0.000193
     10 H                     0.139813      -0.003940
     11 H                     0.140239       0.000210
     12 C                     0.177894       0.095065
     13 H                     0.139802      -0.004008
  --------------------------------------------------------
  Sum of atomic charges =    -0.000000

                    Cartesian Multipole Moments
 -----------------------------------------------------------------
    Charge (ESU x 10^10)
                 0.0000
    Dipole Moment (Debye)
         X      -1.8506      Y      -2.3200      Z       0.4422
       Tot       3.0005
    Quadrupole Moments (Debye-Ang)
        XX     -37.9490     XY      -4.0656     YY     -43.0354
        XZ      -0.7145     YZ       0.7217     ZZ     -42.7161

 Total job time:  49.33s(wall), 104.34s(cpu)
        *  Thank you very much for using Q-Chem.  Have a nice day.  *
