 Q-Chem 5.0, Q-Chem, Inc., Pleasanton, CA (2017)
 Q-Chem 5.0.2 for Intel X86 EM64T Linux

User input:
--------------------------------------------------------------
$molecule
0 2
C        1.6961896235    0.2910913340   -0.2562475246
C        1.1024641072   -0.9098530444   -0.0665970477
C       -0.3442786271   -1.0466614350    0.1650798587
C       -1.1478606630    0.3635609358   -0.0445855575
C       -0.2777981747    1.4737833930   -0.4744290197
N        1.0120695657    1.4853007544   -0.4907189456
H        2.7734389752    0.3636894575   -0.3710690082
H        1.6945118694   -1.8202707958   -0.1091027647
H       -0.8080220960   -1.9768711107   -0.1663343901
H       -2.1439049122    0.3612968415   -0.4906871160
H       -0.7856330212    2.3606255466   -0.8586635118
C       -0.9928474394   -0.3100877597    1.2462344857
H       -1.7783292075   -0.6356041174    1.9171205411
$end

$rem
method                b3lyp
basis                 6-31+g(d,p)
unrestricted          true
symmetry              off
sym_ignore            true
incdft                false
incfock               0
scf_convergence       8
thresh                14
jobtype               sp
scf_guess             read
scf_algorithm         diis
max_scf_cycles        100
scf_final_print       1
$end

--------------------------------------------------------------

             Standard Nuclear Orientation (Angstroms)
    I     Atom           X                Y                Z
 ----------------------------------------------------------------
    1      C       1.6961896235     0.2910913340    -0.2562475246
    2      C       1.1024641072    -0.9098530444    -0.0665970477
    3      C      -0.3442786271    -1.0466614350     0.1650798587
    4      C      -1.1478606630     0.3635609358    -0.0445855575
    5      C      -0.2777981747     1.4737833930    -0.4744290197
    6      N       1.0120695657     1.4853007544    -0.4907189456
    7      H       2.7734389752     0.3636894575    -0.3710690082
    8      H       1.6945118694    -1.8202707958    -0.1091027647
    9      H      -0.8080220960    -1.9768711107    -0.1663343901
   10      H      -2.1439049122     0.3612968415    -0.4906871160
   11      H      -0.7856330212     2.3606255466    -0.8586635118
   12      C      -0.9928474394    -0.3100877597     1.2462344857
   13      H      -1.7783292075    -0.6356041174     1.9171205411
 ----------------------------------------------------------------

    2    -286.8765339763      1.50E-09 Convergence criterion met
 Total energy in the final basis set = -286.87653398

                    Orbital Energies (a.u.)
 --------------------------------------------------------------

 Alpha MOs
 -- Occupied --
-14.337 -10.241 -10.235 -10.232 -10.230 -10.217 -10.206  -0.946
 -0.878  -0.776  -0.677  -0.651  -0.579  -0.540  -0.500  -0.492
 -0.460  -0.434  -0.386  -0.383  -0.370  -0.310  -0.267  -0.240
 -0.230

 Beta MOs
 -- Occupied --
-14.337 -10.240 -10.235 -10.232 -10.217 -10.216 -10.205  -0.944
 -0.869  -0.774  -0.670  -0.649  -0.565  -0.535  -0.497  -0.483
 -0.456  -0.431  -0.385  -0.380  -0.362  -0.301  -0.261  -0.237

          Ground-State Mulliken Net Atomic Charges

     Atom                 Charge (a.u.)    Spin (a.u.)
  --------------------------------------------------------
      1 C                    -0.253332      -0.033072
      2 C                     0.098720       0.039780
      3 C                    -0.160096      -0.022285
      4 C                    -0.013695       0.026275
      5 C                    -0.057481      -0.042628
      6 N                    -0.181679       0.014142
      7 H                     0.125145       0.000772
      8 H                     0.132247       0.003309
      9 H                     0.144383       0.017828
     10 H                     0.144360       0.021469
     11 H                     0.128573       0.005071
     12 C                    -0.255884       0.991103
     13 H                     0.148738      -0.021764
  --------------------------------------------------------
  Sum of atomic charges =    -0.000000

                    Cartesian Multipole Moments
 -----------------------------------------------------------------
    Charge (ESU x 10^10)
                -0.0000
    Dipole Moment (Debye)
         X      -2.2385      Y      -2.1829      Z       0.1155
       Tot       3.1288
    Quadrupole Moments (Debye-Ang)
        XX     -38.2013     XY      -3.4651     YY     -42.6762
        XZ       0.1724     YZ       0.0349     ZZ     -44.0303

 Total job time:  12.70s(wall), 12.49s(cpu)
        *  Thank you very much for using Q-Chem.  Have a nice day.  *
