 Q-Chem 5.0, Q-Chem, Inc., Pleasanton, CA (2017)
 Q-Chem 5.0.2 for Intel X86 EM64T Linux

User input:
--------------------------------------------------------------
$molecule
0 2
C        1.6972694309    0.2877733437   -0.2175751338
C        1.0902557585   -0.9150553610   -0.1129985818
C       -0.3618485362   -1.0474943635    0.0890677221
C       -1.1405378472    0.3809635904   -0.0225078153
C       -0.2578247154    1.4999963778   -0.4004543629
N        1.0304887677    1.4986904788   -0.4080281863
H        2.7791331954    0.3568331895   -0.2964601441
H        1.6744799620   -1.8288840867   -0.1888084605
H       -0.8370377445   -1.9446740523   -0.3118577757
H       -2.1406064937    0.4183947886   -0.4588395517
H       -0.7544626997    2.4045882195   -0.7598849679
C       -0.9923357349   -0.3753114904    1.2230470450
H       -1.7869733424   -0.7358206346    1.8653002126
****
C        1.6345876697    0.2628461681   -0.3411623177
C        1.1268899794   -1.0226477887   -0.3092393138
C       -0.2261782094   -1.4390623092   -0.0422393701
C       -1.2895792873   -0.6347983208    0.2406459205
C       -0.2238538503    1.6683943240    0.1543809253
N        1.0832465802    1.4834035166   -0.1465083426
H        2.7005565157    0.3283376220   -0.5705167714
H        1.8421869683   -1.8157113898   -0.5134749221
H       -0.4068025517   -2.5117294086   -0.0719383591
H       -2.2478197809   -1.1190287534    0.4178652959
H       -0.4685567006    2.7259645468    0.2755584749
C       -1.2864014133    0.8031082457    0.3334210568
H       -2.2382759201    1.2709235473    0.5732077233
$end

$rem
method                b3lyp
basis                 6-31g(d)
unrestricted          true
symmetry              off
sym_ignore            true
incdft                false
incfock               0
scf_convergence       8
thresh                14
jobtype               fsm
scf_guess             core
scf_guess_mix         5
scf_algorithm         diis
max_scf_cycles        100
fsm_nnode             21
fsm_ngrad             6
fsm_mode              2
fsm_opt_mode          2
$end

--------------------------------------------------------------

   20    -286.8549869176      9.68E-09 Convergence criterion met
 Total energy in the final basis set = -286.85498692
   23    -286.9243097621      2.99E-09 Convergence criterion met
 Total energy in the final basis set = -286.92430976
   21    -286.8511329229      6.83E-09 Convergence criterion met
 Total energy in the final basis set = -286.85113292
   21    -286.8530177119      9.75E-09 Convergence criterion met
 Total energy in the final basis set = -286.85301771
   24    -286.9214183086      5.17E-09 Convergence criterion met
 Total energy in the final basis set = -286.92141831
   23    -286.9221138755      8.77E-09 Convergence criterion met
 Total energy in the final basis set = -286.92211388
   21    -286.8440060517      8.68E-09 Convergence criterion met
 Total energy in the final basis set = -286.84400605
   20    -286.8490061180      6.61E-09 Convergence criterion met
 Total energy in the final basis set = -286.79165596
   23    -286.7928790654      4.62E-09 Convergence criterion met
 Total energy in the final basis set = -286.79287907
   23    -286.7917134581      4.87E-09 Convergence criterion met
 Total energy in the final basis set = -286.79171346
   23    -286.7928226436      4.63E-09 Convergence criterion met
 Total energy in the final basis set = -286.79282264
   23    -286.7917860100      4.86E-09 Convergence criterion met
 Total energy in the final basis set = -286.79178601
   23    -286.7927516333      4.64E-09 Convergence criterion met
 Total energy in the final basis set = -286.79275163
   23    -286.7918602901      4.85E-09 Convergence criterion met
 Total energy in the final basis set = -286.79186029
   23    -286.7926792255      4.65E-09 Convergence criterion met
 Total energy in the final basis set = -286.79267923

                    Orbital Energies (a.u.)
 --------------------------------------------------------------

 Alpha MOs
 -- Occupied --
-14.328 -10.256 -10.235 -10.218 -10.218 -10.205 -10.194  -0.938
 -0.863  -0.768  -0.651  -0.623  -0.571  -0.529  -0.495  -0.481
 -0.446  -0.417  -0.382  -0.370  -0.330  -0.307  -0.258  -0.239
 -0.187

 Beta MOs
 -- Occupied --
-14.323 -10.257 -10.236 -10.218 -10.206 -10.206 -10.191  -0.931
 -0.853  -0.765  -0.648  -0.618  -0.553  -0.524  -0.493  -0.475
 -0.443  -0.413  -0.378  -0.362  -0.320  -0.299  -0.253  -0.216

          Ground-State Mulliken Net Atomic Charges

     Atom                 Charge (a.u.)    Spin (a.u.)
  --------------------------------------------------------
      1 C                    -0.001224      -0.113764
      2 C                    -0.069665       0.194460
      3 C                    -0.187811      -0.042236
      4 C                    -0.154106      -0.011673
      5 C                     0.040310      -0.133479
      6 N                    -0.367761       0.254243
      7 H                     0.137303       0.006039
      8 H                     0.136249      -0.008692
      9 H                     0.153893       0.016975
     10 H                     0.158874       0.016170
     11 H                     0.161898       0.011085
     12 C                    -0.170516       0.838620
     13 H                     0.162557      -0.027749
  --------------------------------------------------------
  Sum of atomic charges =     0.000000

                    Cartesian Multipole Moments
 -----------------------------------------------------------------
    Charge (ESU x 10^10)
                 0.0000
    Dipole Moment (Debye)
         X      -1.9308      Y      -1.4949      Z      -0.4223
       Tot       2.4781
    Quadrupole Moments (Debye-Ang)
        XX     -36.9236     XY      -3.6137     YY     -40.0368
        XZ      -1.2057     YZ       1.3487     ZZ     -43.2255

             Standard Nuclear Orientation (Angstroms)
    I     Atom           X                Y                Z
 ----------------------------------------------------------------
    1      C       1.6927699040     0.2588535677    -0.2991790499
    2      C       1.1312906710    -0.9537918318    -0.1373054878
    3      C      -0.3221313649    -1.0826897546     0.1334254348
    4      C      -1.1721837208     0.1004379750    -0.3303298763
    5      C      -0.3178723563     1.4206300636    -0.2916302864
    6      N       0.9814877577     1.4530614821    -0.2498698001
    7      H       2.7614700359     0.3676429660    -0.4659432616
    8      H       1.7305500778    -1.8474385820    -0.3062396812
    9      H      -0.7066697084    -2.0876506513    -0.0752902777
   10      H      -2.1530331945    -0.1426144045    -0.7528279630
   11      H      -0.8003756700     2.4069987973    -0.2119196833
   12      C      -1.0304595856    -0.0652618429     1.1042055834
   13      H      -1.8140786945     0.1615804647     1.8246887820
 ----------------------------------------------------------------

 Total job time:  3599.13s(wall), 4953.41s(cpu)
        *  Thank you very much for using Q-Chem.  Have a nice day.  *
