 Q-Chem 5.0, Q-Chem, Inc., Pleasanton, CA (2017)
 Q-Chem 5.0.2 for Intel X86 EM64T Linux

User input:
--------------------------------------------------------------
$molecule
0 2
C        1.6938957894    0.2660909727   -0.3538030989
C        1.1307323895   -0.9510392602   -0.1316972878
C       -0.3167689383   -1.0136228440    0.1807953053
C       -1.1773990072    0.1328831816   -0.4012493205
C       -0.3447813373    1.3545632668   -0.2285506059
N        0.9794062511    1.4381447031   -0.2701773977
H        2.7541612582    0.3788786313   -0.5629708865
H        1.7043792282   -1.8689478140   -0.2132695345
H       -0.7690426668   -2.0057932664    0.1672737923
H       -2.0561554264    0.0516551002   -1.0359150173
H       -0.8866513194    2.2931595328   -0.1199171232
C       -1.0298266650   -0.0274535433    1.0326789054
H       -1.7011854043   -0.0587604114    1.8785867022
$end

$rem
method                b3lyp
basis                 6-31+g(d,p)
unrestricted          true
symmetry              off
sym_ignore            true
incdft                false
incfock               0
scf_convergence       8
thresh                14
jobtype               rpath
scf_guess             core
scf_guess_mix         5
scf_algorithm         diis
max_scf_cycles        100
rpath_direction       1
rpath_tol_displacement 1000
rpath_max_cycles      50
geom_opt_max_cycles   300
geom_opt_hessian      read
$end

--------------------------------------------------------------

   22    -286.8546796440      4.70E-09 Convergence criterion met
 Total energy in the final basis set = -286.85467964
   23    -286.8561588260      4.36E-09 Convergence criterion met
 Total energy in the final basis set = -286.85615883
   23    -286.8561214823      4.17E-09 Convergence criterion met
 Total energy in the final basis set = -286.85612148
   23    -286.8561614909      4.34E-09 Convergence criterion met
 Total energy in the final basis set = -286.85616149
   22    -286.8605666657      6.94E-09 Convergence criterion met
 Total energy in the final basis set = -286.86056667
   22    -286.8605275990      5.27E-09 Convergence criterion met
 Total energy in the final basis set = -286.86052760
   22    -286.8605722924      6.12E-09 Convergence criterion met
 Total energy in the final basis set = -286.86057229
   21    -286.8664446637      4.47E-09 Convergence criterion met
 Total energy in the final basis set = -286.86984803
   21    -286.8765213484      9.85E-09 Convergence criterion met
 Total energy in the final basis set = -286.87652135
   21    -286.8765192060      9.95E-09 Convergence criterion met
 Total energy in the final basis set = -286.87651921
   21    -286.8765231102      9.89E-09 Convergence criterion met
 Total energy in the final basis set = -286.87652311
   22    -286.8743185939      6.08E-09 Convergence criterion met
 Total energy in the final basis set = -286.87431859
   22    -286.8765333745      4.06E-09 Convergence criterion met
 Total energy in the final basis set = -286.87653337
   22    -286.8765236794      3.91E-09 Convergence criterion met
 Total energy in the final basis set = -286.87652368
   22    -286.8765339762      4.03E-09 Convergence criterion met
 Total energy in the final basis set = -286.87653398

                    Orbital Energies (a.u.)
 --------------------------------------------------------------

 Alpha MOs
 -- Occupied --
-14.337 -10.241 -10.235 -10.232 -10.230 -10.217 -10.206  -0.946
 -0.878  -0.776  -0.677  -0.651  -0.579  -0.540  -0.500  -0.492
 -0.460  -0.434  -0.386  -0.383  -0.370  -0.310  -0.267  -0.240
 -0.230

 Beta MOs
 -- Occupied --
-14.337 -10.240 -10.235 -10.232 -10.217 -10.216 -10.205  -0.944
 -0.869  -0.774  -0.670  -0.649  -0.565  -0.535  -0.497  -0.483
 -0.456  -0.431  -0.385  -0.380  -0.362  -0.301  -0.261  -0.237

          Ground-State Mulliken Net Atomic Charges

     Atom                 Charge (a.u.)    Spin (a.u.)
  --------------------------------------------------------
      1 C                    -0.253332      -0.033090
      2 C                     0.098720       0.039801
      3 C                    -0.160096      -0.022289
      4 C                    -0.013696       0.026277
      5 C                    -0.057481      -0.042631
      6 N                    -0.181679       0.014143
      7 H                     0.125145       0.000773
      8 H                     0.132247       0.003307
      9 H                     0.144383       0.017828
     10 H                     0.144360       0.021469
     11 H                     0.128573       0.005071
     12 C                    -0.255884       0.991104
     13 H                     0.148738      -0.021764
  --------------------------------------------------------
  Sum of atomic charges =     0.000000

                    Cartesian Multipole Moments
 -----------------------------------------------------------------
    Charge (ESU x 10^10)
                 0.0000
    Dipole Moment (Debye)
         X      -2.2385      Y      -2.1829      Z       0.1155
       Tot       3.1288
    Quadrupole Moments (Debye-Ang)
        XX     -38.1947     XY      -3.4601     YY     -42.6728
        XZ       0.1823     YZ       0.0445     ZZ     -44.0313

             Standard Nuclear Orientation (Angstroms)
    I     Atom           X                Y                Z
 ----------------------------------------------------------------
    1      C       1.6938957894     0.2660909727    -0.3538030989
    2      C       1.1307323895    -0.9510392602    -0.1316972878
    3      C      -0.3167689383    -1.0136228440     0.1807953053
    4      C      -1.1773990072     0.1328831816    -0.4012493205
    5      C      -0.3447813373     1.3545632668    -0.2285506059
    6      N       0.9794062511     1.4381447031    -0.2701773977
    7      H       2.7541612582     0.3788786313    -0.5629708865
    8      H       1.7043792282    -1.8689478140    -0.2132695345
    9      H      -0.7690426668    -2.0057932664     0.1672737923
   10      H      -2.0561554264     0.0516551002    -1.0359150173
   11      H      -0.8866513194     2.2931595328    -0.1199171232
   12      C      -1.0298266650    -0.0274535433     1.0326789054
   13      H      -1.7011854043    -0.0587604114     1.8785867022
 ----------------------------------------------------------------

 Total job time:  12962.48s(wall), 25101.43s(cpu)
        *  Thank you very much for using Q-Chem.  Have a nice day.  *
