 Q-Chem 5.0, Q-Chem, Inc., Pleasanton, CA (2017)
 Q-Chem 5.0.2 for Intel X86 EM64T Linux

User input:
--------------------------------------------------------------
$molecule
0 2
C        1.6341641767    0.2628679306   -0.3419338918
C        1.1268549668   -1.0228486149   -0.3089403700
C       -0.2262804931   -1.4391707538   -0.0426398678
C       -1.2895433791   -0.6347394603    0.2401593519
C       -0.2239547606    1.6684870351    0.1540309163
N        1.0829343763    1.4836337744   -0.1482593592
H        2.7004358947    0.3283707347   -0.5699365830
H        1.8427577260   -1.8156454228   -0.5117634122
H       -0.4071311772   -2.5118234283   -0.0724798832
H       -2.2478354013   -1.1188935213    0.4172191863
H       -0.4683187796    2.7259834995    0.2760679781
C       -1.2861699549    0.8030970787    0.3337860626
H       -2.2379131948    1.2706811484    0.5746898721
$end

$rem
method                b3lyp
basis                 6-31g(d)
unrestricted          true
symmetry              off
sym_ignore            true
incdft                false
incfock               0
scf_convergence       8
thresh                14
jobtype               opt
scf_guess             core
scf_guess_mix         5
scf_algorithm         diis
max_scf_cycles        100
geom_opt_max_cycles   300
$end

--------------------------------------------------------------

   23    -286.9243091081      3.36E-09 Convergence criterion met
 Total energy in the final basis set = -286.92430911

             Standard Nuclear Orientation (Angstroms)
    I     Atom           X                Y                Z
 ----------------------------------------------------------------
    1      C       1.6345876697     0.2628461681    -0.3411623177
    2      C       1.1268899794    -1.0226477887    -0.3092393138
    3      C      -0.2261782094    -1.4390623092    -0.0422393701
    4      C      -1.2895792873    -0.6347983208     0.2406459205
    5      C      -0.2238538503     1.6683943240     0.1543809253
    6      N       1.0832465802     1.4834035166    -0.1465083426
    7      H       2.7005565157     0.3283376220    -0.5705167714
    8      H       1.8421869683    -1.8157113898    -0.5134749221
    9      H      -0.4068025517    -2.5117294086    -0.0719383591
   10      H      -2.2478197809    -1.1190287534     0.4178652959
   11      H      -0.4685567006     2.7259645468     0.2755584749
   12      C      -1.2864014133     0.8031082457     0.3334210568
   13      H      -2.2382759201     1.2709235473     0.5732077233
 ----------------------------------------------------------------

   18    -286.9243097719      3.09E-09 Convergence criterion met
 Total energy in the final basis set = -286.92430977
 Final energy is   -286.924309771865
 **  OPTIMIZATION CONVERGED  **

                    Orbital Energies (a.u.)
 --------------------------------------------------------------

 Alpha MOs
 -- Occupied --
-14.322 -10.232 -10.232 -10.212 -10.211 -10.201 -10.201  -0.922
 -0.818  -0.784  -0.693  -0.667  -0.551  -0.537  -0.518  -0.449
 -0.439  -0.414  -0.394  -0.386  -0.349  -0.322  -0.299  -0.251
 -0.162

 Beta MOs
 -- Occupied --
-14.314 -10.233 -10.233 -10.210 -10.210 -10.196 -10.196  -0.911
 -0.809  -0.777  -0.681  -0.665  -0.546  -0.534  -0.514  -0.447
 -0.438  -0.411  -0.383  -0.373  -0.348  -0.295  -0.276  -0.242

          Ground-State Mulliken Net Atomic Charges

     Atom                 Charge (a.u.)    Spin (a.u.)
  --------------------------------------------------------
      1 C                     0.035815      -0.113457
      2 C                    -0.131715       0.348374
      3 C                    -0.111126       0.091932
      4 C                    -0.111407       0.095554
      5 C                     0.035551      -0.111728
      6 N                    -0.423493       0.386975
      7 H                     0.142582       0.003444
      8 H                     0.134363      -0.018398
      9 H                     0.141960      -0.006551
     10 H                     0.141917      -0.006723
     11 H                     0.142595       0.003360
     12 C                    -0.131441       0.345482
     13 H                     0.134397      -0.018264
  --------------------------------------------------------
  Sum of atomic charges =     0.000000

                    Cartesian Multipole Moments
 -----------------------------------------------------------------
    Charge (ESU x 10^10)
                -0.0000
    Dipole Moment (Debye)
         X      -1.3189      Y      -1.8070      Z       0.1794
       Tot       2.2443
    Quadrupole Moments (Debye-Ang)
        XX     -37.4846     XY      -3.7019     YY     -39.5515
        XZ      -1.5084     YZ       1.0656     ZZ     -42.9650

 Total job time:  111.93s(wall), 123.50s(cpu)
        *  Thank you very much for using Q-Chem.  Have a nice day.  *
