 Q-Chem 5.0, Q-Chem, Inc., Pleasanton, CA (2017)
 Q-Chem 5.0.2 for Intel X86 EM64T Linux

User input:
--------------------------------------------------------------
$molecule
0 2
C        1.6972674499    0.2878043459   -0.2177946769
C        1.0901877441   -0.9150443011   -0.1130997488
C       -0.3619637773   -1.0474732349    0.0889831806
C       -1.1404209314    0.3810042155   -0.0222865165
C       -0.2577572752    1.5000476524   -0.4006826261
N        1.0305620919    1.4987760097   -0.4081843795
H        2.7791612696    0.3569904953   -0.2962301170
H        1.6743188469   -1.8289541903   -0.1884936329
H       -0.8372409141   -1.9446421130   -0.3118803428
H       -2.1404458750    0.4184069429   -0.4587273145
H       -0.7545360329    2.4046352209   -0.7599226703
C       -0.9922145815   -0.3754667208    1.2230969943
H       -1.7869180147   -0.7360843224    1.8652218504
$end

$rem
method                b3lyp
basis                 6-31g(d)
unrestricted          true
symmetry              off
sym_ignore            true
incdft                false
incfock               0
scf_convergence       8
thresh                14
jobtype               opt
scf_guess             core
scf_guess_mix         5
scf_algorithm         diis
max_scf_cycles        100
geom_opt_max_cycles   300
$end

--------------------------------------------------------------

   20    -286.8549868006      9.53E-09 Convergence criterion met
 Total energy in the final basis set = -286.85498680

             Standard Nuclear Orientation (Angstroms)
    I     Atom           X                Y                Z
 ----------------------------------------------------------------
    1      C       1.6972694309     0.2877733437    -0.2175751338
    2      C       1.0902557585    -0.9150553610    -0.1129985818
    3      C      -0.3618485362    -1.0474943635     0.0890677221
    4      C      -1.1405378472     0.3809635904    -0.0225078153
    5      C      -0.2578247154     1.4999963778    -0.4004543629
    6      N       1.0304887677     1.4986904788    -0.4080281863
    7      H       2.7791331954     0.3568331895    -0.2964601441
    8      H       1.6744799620    -1.8288840867    -0.1888084605
    9      H      -0.8370377445    -1.9446740523    -0.3118577757
   10      H      -2.1406064937     0.4183947886    -0.4588395517
   11      H      -0.7544626997     2.4045882195    -0.7598849679
   12      C      -0.9923357349    -0.3753114904     1.2230470450
   13      H      -1.7869733424    -0.7358206346     1.8653002126
 ----------------------------------------------------------------

   16    -286.8549869177      6.34E-09 Convergence criterion met
 Total energy in the final basis set = -286.85498692
 Final energy is   -286.854986917739
 **  OPTIMIZATION CONVERGED  **

                    Orbital Energies (a.u.)
 --------------------------------------------------------------

 Alpha MOs
 -- Occupied --
-14.323 -10.230 -10.224 -10.221 -10.219 -10.206 -10.195  -0.934
 -0.868  -0.765  -0.667  -0.641  -0.570  -0.532  -0.491  -0.482
 -0.451  -0.425  -0.377  -0.373  -0.359  -0.300  -0.255  -0.229
 -0.219

 Beta MOs
 -- Occupied --
-14.323 -10.229 -10.224 -10.221 -10.207 -10.205 -10.194  -0.932
 -0.858  -0.763  -0.659  -0.639  -0.556  -0.527  -0.488  -0.473
 -0.447  -0.422  -0.375  -0.371  -0.351  -0.290  -0.250  -0.225

          Ground-State Mulliken Net Atomic Charges

     Atom                 Charge (a.u.)    Spin (a.u.)
  --------------------------------------------------------
      1 C                    -0.009216      -0.014501
      2 C                    -0.083988       0.040815
      3 C                    -0.175937      -0.016464
      4 C                    -0.194460      -0.016827
      5 C                     0.088715       0.019476
      6 N                    -0.391633       0.002340
      7 H                     0.136782       0.000763
      8 H                     0.139628       0.003647
      9 H                     0.155187       0.017112
     10 H                     0.155394       0.022542
     11 H                     0.142821       0.005876
     12 C                    -0.121041       0.958357
     13 H                     0.157749      -0.023136
  --------------------------------------------------------
  Sum of atomic charges =    -0.000000

                    Cartesian Multipole Moments
 -----------------------------------------------------------------
    Charge (ESU x 10^10)
                 0.0000
    Dipole Moment (Debye)
         X      -2.0273      Y      -1.9808      Z      -0.0326
       Tot       2.8345
    Quadrupole Moments (Debye-Ang)
        XX     -37.2623     XY      -3.1741     YY     -41.2224
        XZ       0.1391     YZ       0.1207     ZZ     -42.4162

 Total job time:  89.75s(wall), 113.30s(cpu)
        *  Thank you very much for using Q-Chem.  Have a nice day.  *
