 Q-Chem 5.0, Q-Chem, Inc., Pleasanton, CA (2017)
 Q-Chem 5.0.2 for Intel X86 EM64T Linux

User input:
--------------------------------------------------------------
$molecule
0 2
C        1.6927699040    0.2588535677   -0.2991790499
C        1.1312906710   -0.9537918318   -0.1373054878
C       -0.3221313649   -1.0826897546    0.1334254348
C       -1.1721837208    0.1004379750   -0.3303298763
C       -0.3178723563    1.4206300636   -0.2916302864
N        0.9814877577    1.4530614821   -0.2498698001
H        2.7614700359    0.3676429660   -0.4659432616
H        1.7305500778   -1.8474385820   -0.3062396812
H       -0.7066697084   -2.0876506513   -0.0752902777
H       -2.1530331945   -0.1426144045   -0.7528279630
H       -0.8003756700    2.4069987973   -0.2119196833
C       -1.0304595856   -0.0652618429    1.1042055834
H       -1.8140786945    0.1615804647    1.8246887820
$end

$rem
method                b3lyp
basis                 6-31g(d)
unrestricted          true
symmetry              off
sym_ignore            true
incdft                false
incfock               0
scf_convergence       6
thresh                14
jobtype               sp
scf_guess             read
scf_algorithm         diis
max_scf_cycles        100
stability_analysis    true
max_cis_cycles        100
cis_n_roots           4
$end

--------------------------------------------------------------

             Standard Nuclear Orientation (Angstroms)
    I     Atom           X                Y                Z
 ----------------------------------------------------------------
    1      C       1.6927699040     0.2588535677    -0.2991790499
    2      C       1.1312906710    -0.9537918318    -0.1373054878
    3      C      -0.3221313649    -1.0826897546     0.1334254348
    4      C      -1.1721837208     0.1004379750    -0.3303298763
    5      C      -0.3178723563     1.4206300636    -0.2916302864
    6      N       0.9814877577     1.4530614821    -0.2498698001
    7      H       2.7614700359     0.3676429660    -0.4659432616
    8      H       1.7305500778    -1.8474385820    -0.3062396812
    9      H      -0.7066697084    -2.0876506513    -0.0752902777
   10      H      -2.1530331945    -0.1426144045    -0.7528279630
   11      H      -0.8003756700     2.4069987973    -0.2119196833
   12      C      -1.0304595856    -0.0652618429     1.1042055834
   13      H      -1.8140786945     0.1615804647     1.8246887820
 ----------------------------------------------------------------

    2    -286.8132222034      1.30E-09 Convergence criterion met
 Total energy in the final basis set = -286.81322220

         TDDFT/TDA Excitation Energies
 ---------------------------------------------------

 Excited state   1: excitation energy (eV) =    2.3044
 Total energy for state  1:                  -286.72853845 au
    <S**2>     :  1.0822
    Trans. Mom.:  0.2511 X  -0.1059 Y  -0.0846 Z
    Strength   :     0.0045985010
    S(  1) --> V(  1) amplitude = -0.4234 alpha
    D( 24) --> S(  1) amplitude =  0.8885 beta

 Excited state   2: excitation energy (eV) =    3.0769
 Total energy for state  2:                  -286.70014817 au
    <S**2>     :  1.2297
    Trans. Mom.:  0.2339 X  -0.0796 Y  -0.1395 Z
    Strength   :     0.0060690282
    D( 24) --> V(  1) amplitude = -0.1753 alpha
    S(  1) --> V(  1) amplitude =  0.7437 alpha
    D( 23) --> S(  1) amplitude = -0.4210 beta
    D( 24) --> S(  1) amplitude =  0.3635 beta
    D( 24) --> V(  1) amplitude = -0.2190 beta

 Excited state   3: excitation energy (eV) =    3.3621
 Total energy for state  3:                  -286.68966740 au
    <S**2>     :  1.1948
    Trans. Mom.:  0.2833 X  -0.1682 Y  -0.1667 Z
    Strength   :     0.0112307444
    S(  1) --> V(  1) amplitude =  0.3029 alpha
    D( 23) --> S(  1) amplitude =  0.8619 beta
    D( 24) --> S(  1) amplitude =  0.1672 beta
    D( 24) --> V(  1) amplitude = -0.2378 beta

 Excited state   4: excitation energy (eV) =    3.6775
 Total energy for state  4:                  -286.67807621 au
    <S**2>     :  1.8552
    Trans. Mom.:  0.1495 X  -0.1493 Y  -0.0194 Z
    Strength   :     0.0040541756
    D( 23) --> V(  1) amplitude = -0.2147 alpha
    D( 24) --> V(  1) amplitude =  0.5299 alpha
    S(  1) --> V(  1) amplitude =  0.3800 alpha
    D( 24) --> V(  1) amplitude =  0.6812 beta

 ---------------------------------------------------

                    Orbital Energies (a.u.)
 --------------------------------------------------------------

 Alpha MOs
 -- Occupied --
-14.326 -10.249 -10.231 -10.218 -10.216 -10.204 -10.192  -0.940
 -0.866  -0.766  -0.650  -0.627  -0.577  -0.531  -0.496  -0.483
 -0.446  -0.418  -0.384  -0.371  -0.336  -0.303  -0.257  -0.240
 -0.191

 Beta MOs
 -- Occupied --
-14.321 -10.251 -10.232 -10.216 -10.206 -10.205 -10.190  -0.934
 -0.855  -0.763  -0.646  -0.623  -0.559  -0.526  -0.495  -0.477
 -0.443  -0.414  -0.380  -0.363  -0.327  -0.296  -0.252  -0.217

          Ground-State Mulliken Net Atomic Charges

     Atom                 Charge (a.u.)    Spin (a.u.)
  --------------------------------------------------------
      1 C                    -0.001841      -0.099454
      2 C                    -0.072131       0.174335
      3 C                    -0.184721      -0.040718
      4 C                    -0.158632      -0.013863
      5 C                     0.052823      -0.124443
      6 N                    -0.375638       0.219166
      7 H                     0.138148       0.005628
      8 H                     0.134118      -0.007134
      9 H                     0.153947       0.019980
     10 H                     0.158489       0.013975
     11 H                     0.156914       0.010354
     12 C                    -0.164199       0.871128
     13 H                     0.162724      -0.028952
  --------------------------------------------------------
  Sum of atomic charges =     0.000000

                    Cartesian Multipole Moments
 -----------------------------------------------------------------
    Charge (ESU x 10^10)
                -0.0000
    Dipole Moment (Debye)
         X      -2.0038      Y      -1.5779      Z      -0.3603
       Tot       2.5758
    Quadrupole Moments (Debye-Ang)
        XX     -36.8467     XY      -3.5771     YY     -40.5449
        XZ      -1.0961     YZ       1.0905     ZZ     -42.7833

 Total job time:  131.19s(wall), 81.10s(cpu)
        *  Thank you very much for using Q-Chem.  Have a nice day.  *
