 Q-Chem 5.0, Q-Chem, Inc., Pleasanton, CA (2017)
 Q-Chem 5.0.2 for Intel X86 EM64T Linux

User input:
--------------------------------------------------------------
$molecule
0 2
C        1.6927699040    0.2588535677   -0.2991790499
C        1.1312906710   -0.9537918318   -0.1373054878
C       -0.3221313649   -1.0826897546    0.1334254348
C       -1.1721837208    0.1004379750   -0.3303298763
C       -0.3178723563    1.4206300636   -0.2916302864
N        0.9814877577    1.4530614821   -0.2498698001
H        2.7614700359    0.3676429660   -0.4659432616
H        1.7305500778   -1.8474385820   -0.3062396812
H       -0.7066697084   -2.0876506513   -0.0752902777
H       -2.1530331945   -0.1426144045   -0.7528279630
H       -0.8003756700    2.4069987973   -0.2119196833
C       -1.0304595856   -0.0652618429    1.1042055834
H       -1.8140786945    0.1615804647    1.8246887820
$end

$rem
method                b3lyp
basis                 6-31g(d)
unrestricted          true
symmetry              off
sym_ignore            true
incdft                false
incfock               0
scf_convergence       8
thresh                14
jobtype               ts
scf_guess             read
scf_algorithm         diis
max_scf_cycles        100
geom_opt_max_cycles   500
geom_opt_dmax         100
geom_opt_tol_gradient 10
geom_opt_hessian      read
$end

--------------------------------------------------------------

    2    -286.8132222034      2.51E-10 Convergence criterion met
 Total energy in the final basis set = -286.81322220
   15    -286.8156422547      7.61E-09 Convergence criterion met
 Total energy in the final basis set = -286.81564225
   15    -286.8184311759      7.22E-09 Convergence criterion met
 Total energy in the final basis set = -286.81843118
   15    -286.8211379010      6.67E-09 Convergence criterion met
 Total energy in the final basis set = -286.82113790
   15    -286.8235278140      5.53E-09 Convergence criterion met
 Total energy in the final basis set = -286.82352781
   15    -286.8255337308      4.75E-09 Convergence criterion met
 Total energy in the final basis set = -286.82553373
   15    -286.8272037283      4.20E-09 Convergence criterion met
 Total energy in the final basis set = -286.82720373
   15    -286.8285950137      3.67E-09 Convergence criterion met
   14    -286.8319654749      6.59E-09 Convergence criterion met
 Total energy in the final basis set = -286.83196547
   13    -286.8323564755      9.30E-09 Convergence criterion met
 Total energy in the final basis set = -286.83235648
   13    -286.8325908594      8.41E-09 Convergence criterion met
 Total energy in the final basis set = -286.83259086
   13    -286.8326735135      8.03E-09 Convergence criterion met
 Total energy in the final basis set = -286.83267351
   10    -286.8326738179      8.46E-09 Convergence criterion met
 Total energy in the final basis set = -286.83267382
    8    -286.8326738309      2.37E-09 Convergence criterion met
 Total energy in the final basis set = -286.83267383

             Standard Nuclear Orientation (Angstroms)
    I     Atom           X                Y                Z
 ----------------------------------------------------------------
    1      C       1.6917362522     0.2657981114    -0.3552222209
    2      C       1.1310675780    -0.9498175329    -0.1313621591
    3      C      -0.3164614713    -1.0122227948     0.1827681099
    4      C      -1.1777378607     0.1323401459    -0.3993666369
    5      C      -0.3419715029     1.3532873916    -0.2298621949
    6      N       0.9807019667     1.4392645318    -0.2699596230
    7      H       2.7529700091     0.3783008357    -0.5659769162
    8      H       1.7044984842    -1.8683434564    -0.2121174089
    9      H      -0.7692949242    -2.0045250748     0.1675772202
   10      H      -2.0550863674     0.0500067362    -1.0371879099
   11      H      -0.8853429597     2.2914317079    -0.1162371464
   12      C      -1.0295971159    -0.0240665924     1.0325937935
   13      H      -1.7047179366    -0.0616957599     1.8761375256
 ----------------------------------------------------------------

    8    -286.8326738322      7.80E-09 Convergence criterion met
 Total energy in the final basis set = -286.83267383
 Final energy is   -286.832673832159
 **  OPTIMIZATION CONVERGED  **

                    Orbital Energies (a.u.)
 --------------------------------------------------------------

 Alpha MOs
 -- Occupied --
-14.324 -10.242 -10.221 -10.219 -10.216 -10.205 -10.193  -0.948
 -0.874  -0.767  -0.651  -0.636  -0.583  -0.536  -0.498  -0.480
 -0.452  -0.412  -0.388  -0.372  -0.349  -0.302  -0.261  -0.243
 -0.185

 Beta MOs
 -- Occupied --
-14.317 -10.244 -10.221 -10.216 -10.209 -10.207 -10.189  -0.940
 -0.863  -0.762  -0.643  -0.634  -0.568  -0.532  -0.496  -0.473
 -0.449  -0.408  -0.385  -0.359  -0.337  -0.291  -0.253  -0.222

          Ground-State Mulliken Net Atomic Charges

     Atom                 Charge (a.u.)    Spin (a.u.)
  --------------------------------------------------------
      1 C                     0.000272      -0.147392
      2 C                    -0.070309       0.310684
      3 C                    -0.187969      -0.032467
      4 C                    -0.125800       0.039031
      5 C                     0.027016      -0.173336
      6 N                    -0.374622       0.342123
      7 H                     0.136895       0.008600
      8 H                     0.133492      -0.014335
      9 H                     0.151415       0.017033
     10 H                     0.152872       0.001859
     11 H                     0.153355       0.010074
     12 C                    -0.154645       0.661297
     13 H                     0.158027      -0.023171
  --------------------------------------------------------
  Sum of atomic charges =    -0.000000

                    Cartesian Multipole Moments
 -----------------------------------------------------------------
    Charge (ESU x 10^10)
                -0.0000
    Dipole Moment (Debye)
         X      -1.9498      Y      -1.8744      Z      -0.0710
       Tot       2.7056
    Quadrupole Moments (Debye-Ang)
        XX     -37.2580     XY      -3.4299     YY     -41.2438
        XZ      -0.8912     YZ      -0.0595     ZZ     -41.5177

 Total job time:  632.75s(wall), 763.70s(cpu)
        *  Thank you very much for using Q-Chem.  Have a nice day.  *
