 Q-Chem 5.0, Q-Chem, Inc., Pleasanton, CA (2017)
 Q-Chem 5.0.2 for Intel X86 EM64T Linux

User input:
--------------------------------------------------------------
$molecule
0 2
C        1.6917362522    0.2657981114   -0.3552222209
C        1.1310675780   -0.9498175329   -0.1313621591
C       -0.3164614713   -1.0122227948    0.1827681099
C       -1.1777378607    0.1323401459   -0.3993666369
C       -0.3419715029    1.3532873916   -0.2298621949
N        0.9807019667    1.4392645318   -0.2699596230
H        2.7529700091    0.3783008357   -0.5659769162
H        1.7044984842   -1.8683434564   -0.2121174089
H       -0.7692949242   -2.0045250748    0.1675772202
H       -2.0550863674    0.0500067362   -1.0371879099
H       -0.8853429597    2.2914317079   -0.1162371464
C       -1.0295971159   -0.0240665924    1.0325937935
H       -1.7047179366   -0.0616957599    1.8761375256
$end

$rem
method                b3lyp
basis                 6-31+g(d,p)
unrestricted          true
symmetry              off
sym_ignore            true
incdft                false
incfock               0
scf_convergence       6
thresh                14
jobtype               sp
scf_guess             read
scf_algorithm         diis
max_scf_cycles        100
stability_analysis    true
max_cis_cycles        100
cis_n_roots           4
$end

--------------------------------------------------------------

             Standard Nuclear Orientation (Angstroms)
    I     Atom           X                Y                Z
 ----------------------------------------------------------------
    1      C       1.6917362522     0.2657981114    -0.3552222209
    2      C       1.1310675780    -0.9498175329    -0.1313621591
    3      C      -0.3164614713    -1.0122227948     0.1827681099
    4      C      -1.1777378607     0.1323401459    -0.3993666369
    5      C      -0.3419715029     1.3532873916    -0.2298621949
    6      N       0.9807019667     1.4392645318    -0.2699596230
    7      H       2.7529700091     0.3783008357    -0.5659769162
    8      H       1.7044984842    -1.8683434564    -0.2121174089
    9      H      -0.7692949242    -2.0045250748     0.1675772202
   10      H      -2.0550863674     0.0500067362    -1.0371879099
   11      H      -0.8853429597     2.2914317079    -0.1162371464
   12      C      -1.0295971159    -0.0240665924     1.0325937935
   13      H      -1.7047179366    -0.0616957599     1.8761375256
 ----------------------------------------------------------------

    2    -286.8546518228      2.85E-09 Convergence criterion met
 Total energy in the final basis set = -286.85465182

         TDDFT/TDA Excitation Energies
 ---------------------------------------------------

 Excited state   1: excitation energy (eV) =    2.2664
 Total energy for state  1:                  -286.77136160 au
    <S**2>     :  0.8230
    Trans. Mom.: -0.3874 X   0.1293 Y   0.0982 Z
    Strength   :     0.0097963604
    S(  1) --> V(  1) amplitude =  0.3416 alpha
    D( 24) --> S(  1) amplitude =  0.9203 beta

 Excited state   2: excitation energy (eV) =    2.9793
 Total energy for state  2:                  -286.74516356 au
    <S**2>     :  0.8842
    Trans. Mom.: -0.0707 X   0.0546 Y   0.0393 Z
    Strength   :     0.0006950125
    S(  1) --> V(  1) amplitude =  0.4605 alpha
    D( 23) --> S(  1) amplitude =  0.8681 beta

 Excited state   3: excitation energy (eV) =    3.4347
 Total energy for state  3:                  -286.72842768 au
    <S**2>     :  0.9036
    Trans. Mom.:  0.5415 X  -0.2398 Y  -0.2971 Z
    Strength   :     0.0369371546
    S(  1) --> V(  1) amplitude =  0.7807 alpha
    D( 21) --> S(  1) amplitude =  0.1549 beta
    D( 23) --> S(  1) amplitude = -0.4441 beta
    D( 24) --> S(  1) amplitude = -0.3267 beta

 Excited state   4: excitation energy (eV) =    3.9785
 Total energy for state  4:                  -286.70844468 au
    <S**2>     :  2.3147
    Trans. Mom.: -0.1101 X   0.1641 Y   0.0395 Z
    Strength   :     0.0039583976
    D( 23) --> V(  1) amplitude =  0.2109 alpha
    D( 24) --> V(  1) amplitude = -0.5230 alpha
    S(  1) --> V(  1) amplitude = -0.1696 alpha
    D( 22) --> S(  1) amplitude =  0.2210 beta
    D( 24) --> V(  1) amplitude = -0.7000 beta

 ---------------------------------------------------

                    Orbital Energies (a.u.)
 --------------------------------------------------------------

 Alpha MOs
 -- Occupied --
-14.338 -10.252 -10.231 -10.230 -10.227 -10.216 -10.204  -0.960
 -0.886  -0.778  -0.661  -0.646  -0.591  -0.545  -0.505  -0.491
 -0.461  -0.422  -0.397  -0.382  -0.359  -0.313  -0.273  -0.255
 -0.197

 Beta MOs
 -- Occupied --
-14.332 -10.254 -10.231 -10.226 -10.221 -10.217 -10.200  -0.953
 -0.875  -0.773  -0.653  -0.644  -0.577  -0.540  -0.503  -0.484
 -0.457  -0.418  -0.394  -0.369  -0.348  -0.302  -0.265  -0.234

          Ground-State Mulliken Net Atomic Charges

     Atom                 Charge (a.u.)    Spin (a.u.)
  --------------------------------------------------------
      1 C                    -0.306712      -0.161814
      2 C                     0.282046       0.330391
      3 C                    -0.391296      -0.047801
      4 C                     0.241082       0.022690
      5 C                    -0.360989      -0.180471
      6 N                    -0.101137       0.341839
      7 H                     0.126591       0.008467
      8 H                     0.127920      -0.014435
      9 H                     0.139908       0.017333
     10 H                     0.138960       0.002130
     11 H                     0.143711       0.009366
     12 C                    -0.183305       0.694145
     13 H                     0.143221      -0.021840
  --------------------------------------------------------
  Sum of atomic charges =     0.000000

                    Cartesian Multipole Moments
 -----------------------------------------------------------------
    Charge (ESU x 10^10)
                 0.0000
    Dipole Moment (Debye)
         X      -2.1444      Y      -2.0352      Z      -0.0732
       Tot       2.9574
    Quadrupole Moments (Debye-Ang)
        XX     -38.3043     XY      -3.8009     YY     -42.6922
        XZ      -0.8696     YZ      -0.1650     ZZ     -43.0471

 Total job time:  297.79s(wall), 203.02s(cpu)
        *  Thank you very much for using Q-Chem.  Have a nice day.  *
