 Q-Chem 5.0, Q-Chem, Inc., Pleasanton, CA (2017)
 Q-Chem 5.0.2 for Intel X86 EM64T Linux

User input:
--------------------------------------------------------------
$molecule
0 2
C        1.6938957894    0.2660909727   -0.3538030989
C        1.1307323895   -0.9510392602   -0.1316972878
C       -0.3167689383   -1.0136228440    0.1807953053
C       -1.1773990072    0.1328831816   -0.4012493205
C       -0.3447813373    1.3545632668   -0.2285506059
N        0.9794062511    1.4381447031   -0.2701773977
H        2.7541612582    0.3788786313   -0.5629708865
H        1.7043792282   -1.8689478140   -0.2132695345
H       -0.7690426668   -2.0057932664    0.1672737923
H       -2.0561554264    0.0516551002   -1.0359150173
H       -0.8866513194    2.2931595328   -0.1199171232
C       -1.0298266650   -0.0274535433    1.0326789054
H       -1.7011854043   -0.0587604114    1.8785867022
$end

$rem
method                b3lyp
basis                 6-31+g(d,p)
unrestricted          true
symmetry              off
sym_ignore            true
incdft                false
incfock               0
scf_convergence       8
thresh                14
jobtype               freq
scf_guess             read
scf_algorithm         diis
max_scf_cycles        100
$end

--------------------------------------------------------------

             Standard Nuclear Orientation (Angstroms)
    I     Atom           X                Y                Z
 ----------------------------------------------------------------
    1      C       1.6938957894     0.2660909727    -0.3538030989
    2      C       1.1307323895    -0.9510392602    -0.1316972878
    3      C      -0.3167689383    -1.0136228440     0.1807953053
    4      C      -1.1773990072     0.1328831816    -0.4012493205
    5      C      -0.3447813373     1.3545632668    -0.2285506059
    6      N       0.9794062511     1.4381447031    -0.2701773977
    7      H       2.7541612582     0.3788786313    -0.5629708865
    8      H       1.7043792282    -1.8689478140    -0.2132695345
    9      H      -0.7690426668    -2.0057932664     0.1672737923
   10      H      -2.0561554264     0.0516551002    -1.0359150173
   11      H      -0.8866513194     2.2931595328    -0.1199171232
   12      C      -1.0298266650    -0.0274535433     1.0326789054
   13      H      -1.7011854043    -0.0587604114     1.8785867022
 ----------------------------------------------------------------

    2    -286.8546796441      2.94E-10 Convergence criterion met
 Total energy in the final basis set = -286.85467964

                    Orbital Energies (a.u.)
 --------------------------------------------------------------

 Alpha MOs
 -- Occupied --
-14.338 -10.252 -10.232 -10.230 -10.227 -10.216 -10.204  -0.960
 -0.885  -0.777  -0.661  -0.646  -0.591  -0.544  -0.506  -0.491
 -0.461  -0.422  -0.397  -0.382  -0.360  -0.312  -0.272  -0.254
 -0.197

 Beta MOs
 -- Occupied --
-14.331 -10.254 -10.232 -10.226 -10.221 -10.218 -10.200  -0.952
 -0.874  -0.773  -0.653  -0.644  -0.577  -0.540  -0.504  -0.484
 -0.457  -0.418  -0.394  -0.370  -0.348  -0.302  -0.265  -0.233

          Ground-State Mulliken Net Atomic Charges

     Atom                 Charge (a.u.)    Spin (a.u.)
  --------------------------------------------------------
      1 C                    -0.306302      -0.163645
      2 C                     0.280598       0.333536
      3 C                    -0.389285      -0.049349
      4 C                     0.240384       0.022495
      5 C                    -0.362586      -0.180949
      6 N                    -0.101801       0.342340
      7 H                     0.126907       0.008491
      8 H                     0.127751      -0.014554
      9 H                     0.140119       0.017523
     10 H                     0.138954       0.002210
     11 H                     0.143943       0.009395
     12 C                    -0.181972       0.694628
     13 H                     0.143291      -0.022122
  --------------------------------------------------------
  Sum of atomic charges =     0.000000

                    Cartesian Multipole Moments
 -----------------------------------------------------------------
    Charge (ESU x 10^10)
                 0.0000
    Dipole Moment (Debye)
         X      -2.1457      Y      -2.0318      Z      -0.0644
       Tot       2.9558
    Quadrupole Moments (Debye-Ang)
        XX     -38.2945     XY      -3.8174     YY     -42.6825
        XZ      -0.8754     YZ      -0.1650     ZZ     -43.0448

 Frequency:      -597.91                 307.18                 350.61
 Force Cnst:      1.1472                 0.1728                 0.2018
 Red. Mass:       5.4466                 3.1080                 2.7863
 IR Intens:        7.456                  2.583                 17.150
 Frequency:       520.40                 548.99                 553.95
 Force Cnst:      0.2956                 0.4773                 0.8857
 Red. Mass:       1.8528                 2.6880                 4.8991
 IR Intens:       21.244                 13.955                  9.419
 Frequency:       674.81                 718.64                 755.66
 Force Cnst:      1.1373                 0.6170                 0.5197
 Red. Mass:       4.2390                 2.0278                 1.5449
 IR Intens:        1.403                  6.538                 55.248
 Frequency:       810.50                 879.53                 902.73
 Force Cnst:      0.5395                 2.0785                 0.6194
 Red. Mass:       1.3939                 4.5604                 1.2901
 IR Intens:       12.975                  4.198                  2.088
 Frequency:       957.85                 964.12                 985.26
 Force Cnst:      0.7555                 0.8139                 1.2454
 Red. Mass:       1.3977                 1.4861                 2.1775
 IR Intens:        1.646                  7.238                 35.140
 Frequency:      1016.87                1027.13                1058.15
 Force Cnst:      2.1966                 1.2229                 0.9891
 Red. Mass:       3.6055                 1.9674                 1.4994
 IR Intens:        1.682                  6.263                  2.646
 Frequency:      1105.39                1185.10                1212.13
 Force Cnst:      1.3464                 1.4443                 1.1858
 Red. Mass:       1.8703                 1.7455                 1.3699
 IR Intens:        4.195                  4.745                  8.728
 Frequency:      1292.04                1344.22                1368.84
 Force Cnst:      1.7447                 3.9991                 1.6657
 Red. Mass:       1.7738                 3.7564                 1.5088
 IR Intens:        7.541                  3.492                  6.969
 Frequency:      1438.26                1455.83                1591.27
 Force Cnst:      2.1681                 2.7414                 6.9439
 Red. Mass:       1.7789                 2.1953                 4.6544
 IR Intens:        0.358                  1.573                 19.941
 Frequency:      3128.46                3158.93                3165.92
 Force Cnst:      6.2647                 6.3993                 6.4480
 Red. Mass:       1.0864                 1.0884                 1.0919
 IR Intens:       13.647                 13.891                 27.267
 Frequency:      3184.21                3208.35                3255.89
 Force Cnst:      6.4938                 6.6521                 6.8522
 Red. Mass:       1.0870                 1.0968                 1.0971
 IR Intens:        9.992                 22.710                  0.093

 STANDARD THERMODYNAMIC QUANTITIES AT   298.15 K  AND     1.00 ATM

   This Molecule has  1 Imaginary Frequencies
   Zero point vibrational energy:       63.083 kcal/mol

   Atom    1 Element C  Has Mass   12.00000
   Atom    2 Element C  Has Mass   12.00000
   Atom    3 Element C  Has Mass   12.00000
   Atom    4 Element C  Has Mass   12.00000
   Atom    5 Element C  Has Mass   12.00000
   Atom    6 Element N  Has Mass   14.00307
   Atom    7 Element H  Has Mass    1.00783
   Atom    8 Element H  Has Mass    1.00783
   Atom    9 Element H  Has Mass    1.00783
   Atom   10 Element H  Has Mass    1.00783
   Atom   11 Element H  Has Mass    1.00783
   Atom   12 Element C  Has Mass   12.00000
   Atom   13 Element H  Has Mass    1.00783
   Molecular Mass:    92.050050 amu
   Principal axes and moments of inertia in amu*Bohr^2:
                             1           2           3
    Eigenvalues --      365.24095   485.20657   732.47649
          X               0.94781    -0.23469     0.21581
          Y               0.20368     0.96645     0.15648
          Z              -0.24530    -0.10435     0.96382
   Rotational Symmetry Number is   1
   The Molecule is an Asymmetric Top
   Translational Enthalpy:        0.889 kcal/mol
   Rotational Enthalpy:           0.889 kcal/mol
   Vibrational Enthalpy:         64.458 kcal/mol
   gas constant (RT):             0.592 kcal/mol
   Translational Entropy:        39.471  cal/mol.K
   Rotational Entropy:           26.365  cal/mol.K
   Vibrational Entropy:           6.406  cal/mol.K

   Total Enthalpy:               66.828 kcal/mol
   Total Entropy:                72.242  cal/mol.K

 Total job time:  630.83s(wall), 554.88s(cpu)
        *  Thank you very much for using Q-Chem.  Have a nice day.  *
