 Q-Chem 5.0, Q-Chem, Inc., Pleasanton, CA (2017)
 Q-Chem 5.0.2 for Intel X86 EM64T Linux

User input:
--------------------------------------------------------------
$molecule
0 2
C        1.6917362522    0.2657981114   -0.3552222209
C        1.1310675780   -0.9498175329   -0.1313621591
C       -0.3164614713   -1.0122227948    0.1827681099
C       -1.1777378607    0.1323401459   -0.3993666369
C       -0.3419715029    1.3532873916   -0.2298621949
N        0.9807019667    1.4392645318   -0.2699596230
H        2.7529700091    0.3783008357   -0.5659769162
H        1.7044984842   -1.8683434564   -0.2121174089
H       -0.7692949242   -2.0045250748    0.1675772202
H       -2.0550863674    0.0500067362   -1.0371879099
H       -0.8853429597    2.2914317079   -0.1162371464
C       -1.0295971159   -0.0240665924    1.0325937935
H       -1.7047179366   -0.0616957599    1.8761375256
$end

$rem
method                b3lyp
basis                 6-31g(d)
unrestricted          true
symmetry              off
sym_ignore            true
incdft                false
incfock               0
scf_convergence       6
thresh                14
jobtype               sp
scf_guess             read
scf_algorithm         diis
max_scf_cycles        100
stability_analysis    true
max_cis_cycles        100
cis_n_roots           4
$end

--------------------------------------------------------------

             Standard Nuclear Orientation (Angstroms)
    I     Atom           X                Y                Z
 ----------------------------------------------------------------
    1      C       1.6917362522     0.2657981114    -0.3552222209
    2      C       1.1310675780    -0.9498175329    -0.1313621591
    3      C      -0.3164614713    -1.0122227948     0.1827681099
    4      C      -1.1777378607     0.1323401459    -0.3993666369
    5      C      -0.3419715029     1.3532873916    -0.2298621949
    6      N       0.9807019667     1.4392645318    -0.2699596230
    7      H       2.7529700091     0.3783008357    -0.5659769162
    8      H       1.7044984842    -1.8683434564    -0.2121174089
    9      H      -0.7692949242    -2.0045250748     0.1675772202
   10      H      -2.0550863674     0.0500067362    -1.0371879099
   11      H      -0.8853429597     2.2914317079    -0.1162371464
   12      C      -1.0295971159    -0.0240665924     1.0325937935
   13      H      -1.7047179366    -0.0616957599     1.8761375256
 ----------------------------------------------------------------

    2    -286.8326738321      1.17E-09 Convergence criterion met
 Total energy in the final basis set = -286.83267383

         TDDFT/TDA Excitation Energies
 ---------------------------------------------------

 Excited state   1: excitation energy (eV) =    2.3122
 Total energy for state  1:                  -286.74770120 au
    <S**2>     :  0.8295
    Trans. Mom.: -0.3594 X   0.1113 Y   0.0868 Z
    Strength   :     0.0084445609
    S(  1) --> V(  1) amplitude =  0.3414 alpha
    D( 24) --> S(  1) amplitude =  0.9216 beta

 Excited state   2: excitation energy (eV) =    3.0343
 Total energy for state  2:                  -286.72116664 au
    <S**2>     :  0.8946
    Trans. Mom.: -0.1062 X   0.0612 Y   0.0402 Z
    Strength   :     0.0012367110
    S(  1) --> V(  1) amplitude =  0.4387 alpha
    D( 23) --> S(  1) amplitude =  0.8817 beta

 Excited state   3: excitation energy (eV) =    3.5863
 Total energy for state  3:                  -286.70088092 au
    <S**2>     :  0.9643
    Trans. Mom.:  0.4966 X  -0.2477 Y  -0.3002 Z
    Strength   :     0.0349767392
    S(  1) --> V(  1) amplitude =  0.7785 alpha
    D( 21) --> S(  1) amplitude =  0.1742 beta
    D( 23) --> S(  1) amplitude = -0.4107 beta
    D( 24) --> S(  1) amplitude = -0.3228 beta
    D( 24) --> V(  1) amplitude = -0.1586 beta

 Excited state   4: excitation energy (eV) =    4.0842
 Total energy for state  4:                  -286.68258042 au
    <S**2>     :  2.2405
    Trans. Mom.: -0.1325 X   0.1725 Y   0.0612 Z
    Strength   :     0.0051111621
    D( 23) --> V(  1) amplitude =  0.2446 alpha
    D( 24) --> V(  1) amplitude = -0.5203 alpha
    S(  1) --> V(  1) amplitude = -0.2198 alpha
    S(  1) --> V(  2) amplitude =  0.1828 alpha
    D( 22) --> S(  1) amplitude =  0.2415 beta
    D( 24) --> V(  1) amplitude = -0.6850 beta

 ---------------------------------------------------

                    Orbital Energies (a.u.)
 --------------------------------------------------------------

 Alpha MOs
 -- Occupied --
-14.324 -10.242 -10.221 -10.219 -10.216 -10.205 -10.193  -0.948
 -0.874  -0.767  -0.651  -0.636  -0.583  -0.536  -0.498  -0.480
 -0.452  -0.412  -0.388  -0.372  -0.349  -0.302  -0.261  -0.243
 -0.185

 Beta MOs
 -- Occupied --
-14.317 -10.244 -10.221 -10.216 -10.209 -10.207 -10.189  -0.940
 -0.863  -0.762  -0.643  -0.634  -0.568  -0.532  -0.496  -0.473
 -0.449  -0.408  -0.385  -0.359  -0.337  -0.291  -0.253  -0.222

          Ground-State Mulliken Net Atomic Charges

     Atom                 Charge (a.u.)    Spin (a.u.)
  --------------------------------------------------------
      1 C                     0.000272      -0.147391
      2 C                    -0.070309       0.310682
      3 C                    -0.187969      -0.032467
      4 C                    -0.125800       0.039031
      5 C                     0.027016      -0.173336
      6 N                    -0.374622       0.342122
      7 H                     0.136895       0.008600
      8 H                     0.133492      -0.014335
      9 H                     0.151415       0.017033
     10 H                     0.152872       0.001859
     11 H                     0.153355       0.010074
     12 C                    -0.154645       0.661298
     13 H                     0.158027      -0.023171
  --------------------------------------------------------
  Sum of atomic charges =     0.000000

                    Cartesian Multipole Moments
 -----------------------------------------------------------------
    Charge (ESU x 10^10)
                 0.0000
    Dipole Moment (Debye)
         X      -1.9498      Y      -1.8744      Z      -0.0710
       Tot       2.7056
    Quadrupole Moments (Debye-Ang)
        XX     -37.2580     XY      -3.4299     YY     -41.2438
        XZ      -0.8912     YZ      -0.0595     ZZ     -41.5177

 Total job time:  128.19s(wall), 84.74s(cpu)
        *  Thank you very much for using Q-Chem.  Have a nice day.  *
