 Q-Chem 5.0, Q-Chem, Inc., Pleasanton, CA (2017)
 Q-Chem 5.0.2 for Intel X86 EM64T Linux

User input:
--------------------------------------------------------------
$molecule
0 2
C        1.6917362522    0.2657981114   -0.3552222209
C        1.1310675780   -0.9498175329   -0.1313621591
C       -0.3164614713   -1.0122227948    0.1827681099
C       -1.1777378607    0.1323401459   -0.3993666369
C       -0.3419715029    1.3532873916   -0.2298621949
N        0.9807019667    1.4392645318   -0.2699596230
H        2.7529700091    0.3783008357   -0.5659769162
H        1.7044984842   -1.8683434564   -0.2121174089
H       -0.7692949242   -2.0045250748    0.1675772202
H       -2.0550863674    0.0500067362   -1.0371879099
H       -0.8853429597    2.2914317079   -0.1162371464
C       -1.0295971159   -0.0240665924    1.0325937935
H       -1.7047179366   -0.0616957599    1.8761375256
$end

$rem
method                b3lyp
basis                 6-31+g(d,p)
unrestricted          true
symmetry              off
sym_ignore            true
incdft                false
incfock               0
scf_convergence       8
thresh                14
jobtype               freq
scf_guess             read
scf_algorithm         diis
max_scf_cycles        100
$end

--------------------------------------------------------------

             Standard Nuclear Orientation (Angstroms)
    I     Atom           X                Y                Z
 ----------------------------------------------------------------
    1      C       1.6917362522     0.2657981114    -0.3552222209
    2      C       1.1310675780    -0.9498175329    -0.1313621591
    3      C      -0.3164614713    -1.0122227948     0.1827681099
    4      C      -1.1777378607     0.1323401459    -0.3993666369
    5      C      -0.3419715029     1.3532873916    -0.2298621949
    6      N       0.9807019667     1.4392645318    -0.2699596230
    7      H       2.7529700091     0.3783008357    -0.5659769162
    8      H       1.7044984842    -1.8683434564    -0.2121174089
    9      H      -0.7692949242    -2.0045250748     0.1675772202
   10      H      -2.0550863674     0.0500067362    -1.0371879099
   11      H      -0.8853429597     2.2914317079    -0.1162371464
   12      C      -1.0295971159    -0.0240665924     1.0325937935
   13      H      -1.7047179366    -0.0616957599     1.8761375256
 ----------------------------------------------------------------

    2    -286.8546518228      2.16E-09 Convergence criterion met
 Total energy in the final basis set = -286.85465182

                    Orbital Energies (a.u.)
 --------------------------------------------------------------

 Alpha MOs
 -- Occupied --
-14.338 -10.252 -10.231 -10.230 -10.227 -10.216 -10.204  -0.960
 -0.886  -0.778  -0.661  -0.646  -0.591  -0.545  -0.505  -0.491
 -0.461  -0.422  -0.397  -0.382  -0.359  -0.313  -0.273  -0.255
 -0.197

 Beta MOs
 -- Occupied --
-14.332 -10.254 -10.231 -10.226 -10.221 -10.217 -10.200  -0.953
 -0.875  -0.773  -0.653  -0.644  -0.577  -0.540  -0.503  -0.484
 -0.457  -0.418  -0.394  -0.369  -0.348  -0.302  -0.265  -0.234

          Ground-State Mulliken Net Atomic Charges

     Atom                 Charge (a.u.)    Spin (a.u.)
  --------------------------------------------------------
      1 C                    -0.306712      -0.161815
      2 C                     0.282046       0.330393
      3 C                    -0.391296      -0.047802
      4 C                     0.241082       0.022690
      5 C                    -0.360989      -0.180471
      6 N                    -0.101137       0.341840
      7 H                     0.126591       0.008467
      8 H                     0.127920      -0.014435
      9 H                     0.139908       0.017333
     10 H                     0.138960       0.002130
     11 H                     0.143711       0.009366
     12 C                    -0.183305       0.694145
     13 H                     0.143221      -0.021840
  --------------------------------------------------------
  Sum of atomic charges =     0.000000

                    Cartesian Multipole Moments
 -----------------------------------------------------------------
    Charge (ESU x 10^10)
                -0.0000
    Dipole Moment (Debye)
         X      -2.1444      Y      -2.0352      Z      -0.0732
       Tot       2.9574
    Quadrupole Moments (Debye-Ang)
        XX     -38.3043     XY      -3.8009     YY     -42.6922
        XZ      -0.8696     YZ      -0.1650     ZZ     -43.0471

 Frequency:      -596.20                 306.13                 350.53
 Force Cnst:      1.1319                 0.1732                 0.2057
 Red. Mass:       5.4050                 3.1373                 2.8418
 IR Intens:        7.505                  2.536                 16.310
 Frequency:       525.66                 553.40                 557.57
 Force Cnst:      0.3840                 1.0822                 0.3517
 Red. Mass:       2.3586                 5.9979                 1.9204
 IR Intens:       15.826                  7.019                 22.228
 Frequency:       675.83                 721.30                 758.52
 Force Cnst:      1.1379                 0.6224                 0.5192
 Red. Mass:       4.2282                 2.0305                 1.5317
 IR Intens:        1.843                  6.418                 55.249
 Frequency:       812.56                 880.55                 905.72
 Force Cnst:      0.5494                 2.1042                 0.6246
 Red. Mass:       1.4122                 4.6061                 1.2923
 IR Intens:       12.813                  4.075                  2.136
 Frequency:       962.43                 967.06                 988.23
 Force Cnst:      0.7655                 0.8078                 1.2399
 Red. Mass:       1.4027                 1.4660                 2.1549
 IR Intens:        2.937                  6.183                 35.255
 Frequency:      1019.03                1028.67                1060.62
 Force Cnst:      2.1866                 1.2265                 0.9848
 Red. Mass:       3.5738                 1.9673                 1.4859
 IR Intens:        1.830                  6.520                  2.655
 Frequency:      1107.41                1188.70                1215.15
 Force Cnst:      1.3445                 1.4673                 1.1878
 Red. Mass:       1.8608                 1.7625                 1.3654
 IR Intens:        4.337                  4.925                  8.533
 Frequency:      1293.67                1349.22                1372.43
 Force Cnst:      1.7331                 3.8274                 1.7085
 Red. Mass:       1.7577                 3.5685                 1.5395
 IR Intens:        7.545                  3.557                  6.936
 Frequency:      1440.45                1459.45                1598.74
 Force Cnst:      2.1796                 2.7678                 7.0767
 Red. Mass:       1.7830                 2.2055                 4.6992
 IR Intens:        0.399                  1.634                 19.802
 Frequency:      3124.89                3150.72                3158.35
 Force Cnst:      6.2503                 6.3654                 6.4177
 Red. Mass:       1.0864                 1.0883                 1.0920
 IR Intens:       13.603                 15.320                 27.131
 Frequency:      3173.65                3203.94                3248.81
 Force Cnst:      6.4561                 6.6294                 6.8228
 Red. Mass:       1.0879                 1.0961                 1.0971
 IR Intens:       12.947                 20.216                  0.125

 STANDARD THERMODYNAMIC QUANTITIES AT   298.15 K  AND     1.00 ATM

   This Molecule has  1 Imaginary Frequencies
   Zero point vibrational energy:       63.129 kcal/mol

   Atom    1 Element C  Has Mass   12.00000
   Atom    2 Element C  Has Mass   12.00000
   Atom    3 Element C  Has Mass   12.00000
   Atom    4 Element C  Has Mass   12.00000
   Atom    5 Element C  Has Mass   12.00000
   Atom    6 Element N  Has Mass   14.00307
   Atom    7 Element H  Has Mass    1.00783
   Atom    8 Element H  Has Mass    1.00783
   Atom    9 Element H  Has Mass    1.00783
   Atom   10 Element H  Has Mass    1.00783
   Atom   11 Element H  Has Mass    1.00783
   Atom   12 Element C  Has Mass   12.00000
   Atom   13 Element H  Has Mass    1.00783
   Molecular Mass:    92.050050 amu
   Principal axes and moments of inertia in amu*Bohr^2:
                             1           2           3
    Eigenvalues --      364.71388   485.02885   731.95874
          X               0.94740    -0.23579     0.21641
          Y               0.20474     0.96623     0.15644
          Z              -0.24599    -0.10390     0.96369
   Rotational Symmetry Number is   1
   The Molecule is an Asymmetric Top
   Translational Enthalpy:        0.889 kcal/mol
   Rotational Enthalpy:           0.889 kcal/mol
   Vibrational Enthalpy:         64.495 kcal/mol
   gas constant (RT):             0.592 kcal/mol
   Translational Entropy:        39.471  cal/mol.K
   Rotational Entropy:           26.362  cal/mol.K
   Vibrational Entropy:           6.363  cal/mol.K

   Total Enthalpy:               66.865 kcal/mol
   Total Entropy:                72.196  cal/mol.K

 Total job time:  626.27s(wall), 555.41s(cpu)
        *  Thank you very much for using Q-Chem.  Have a nice day.  *
