 Q-Chem 5.0, Q-Chem, Inc., Pleasanton, CA (2017)
 Q-Chem 5.0.2 for Intel X86 EM64T Linux

User input:
--------------------------------------------------------------
$molecule
0 2
C        1.6938957894    0.2660909727   -0.3538030989
C        1.1307323895   -0.9510392602   -0.1316972878
C       -0.3167689383   -1.0136228440    0.1807953053
C       -1.1773990072    0.1328831816   -0.4012493205
C       -0.3447813373    1.3545632668   -0.2285506059
N        0.9794062511    1.4381447031   -0.2701773977
H        2.7541612582    0.3788786313   -0.5629708865
H        1.7043792282   -1.8689478140   -0.2132695345
H       -0.7690426668   -2.0057932664    0.1672737923
H       -2.0561554264    0.0516551002   -1.0359150173
H       -0.8866513194    2.2931595328   -0.1199171232
C       -1.0298266650   -0.0274535433    1.0326789054
H       -1.7011854043   -0.0587604114    1.8785867022
$end

$rem
method                b3lyp
basis                 6-31+g(d,p)
unrestricted          true
symmetry              off
sym_ignore            true
incdft                false
incfock               0
scf_convergence       6
thresh                14
jobtype               sp
scf_guess             read
scf_algorithm         diis
max_scf_cycles        100
stability_analysis    true
max_cis_cycles        100
cis_n_roots           4
$end

--------------------------------------------------------------

             Standard Nuclear Orientation (Angstroms)
    I     Atom           X                Y                Z
 ----------------------------------------------------------------
    1      C       1.6938957894     0.2660909727    -0.3538030989
    2      C       1.1307323895    -0.9510392602    -0.1316972878
    3      C      -0.3167689383    -1.0136228440     0.1807953053
    4      C      -1.1773990072     0.1328831816    -0.4012493205
    5      C      -0.3447813373     1.3545632668    -0.2285506059
    6      N       0.9794062511     1.4381447031    -0.2701773977
    7      H       2.7541612582     0.3788786313    -0.5629708865
    8      H       1.7043792282    -1.8689478140    -0.2132695345
    9      H      -0.7690426668    -2.0057932664     0.1672737923
   10      H      -2.0561554264     0.0516551002    -1.0359150173
   11      H      -0.8866513194     2.2931595328    -0.1199171232
   12      C      -1.0298266650    -0.0274535433     1.0326789054
   13      H      -1.7011854043    -0.0587604114     1.8785867022
 ----------------------------------------------------------------

    2    -286.8546796440      9.67E-10 Convergence criterion met
 Total energy in the final basis set = -286.85467964

         TDDFT/TDA Excitation Energies
 ---------------------------------------------------

 Excited state   1: excitation energy (eV) =    2.2556
 Total energy for state  1:                  -286.77178810 au
    <S**2>     :  0.8233
    Trans. Mom.: -0.3873 X   0.1282 Y   0.0977 Z
    Strength   :     0.0097244114
    S(  1) --> V(  1) amplitude =  0.3403 alpha
    D( 24) --> S(  1) amplitude =  0.9208 beta

 Excited state   2: excitation energy (eV) =    2.9671
 Total energy for state  2:                  -286.74563943 au
    <S**2>     :  0.8847
    Trans. Mom.: -0.0723 X   0.0553 Y   0.0403 Z
    Strength   :     0.0007206453
    S(  1) --> V(  1) amplitude =  0.4598 alpha
    D( 23) --> S(  1) amplitude =  0.8686 beta

 Excited state   3: excitation energy (eV) =    3.4279
 Total energy for state  3:                  -286.72870691 au
    <S**2>     :  0.9041
    Trans. Mom.:  0.5435 X  -0.2392 Y  -0.2968 Z
    Strength   :     0.0370095287
    S(  1) --> V(  1) amplitude =  0.7815 alpha
    D( 21) --> S(  1) amplitude =  0.1539 beta
    D( 23) --> S(  1) amplitude = -0.4428 beta
    D( 24) --> S(  1) amplitude = -0.3256 beta

 Excited state   4: excitation energy (eV) =    3.9631
 Total energy for state  4:                  -286.70903895 au
    <S**2>     :  2.3248
    Trans. Mom.: -0.1124 X   0.1627 Y   0.0391 Z
    Strength   :     0.0039464893
    D( 23) --> V(  1) amplitude =  0.2143 alpha
    D( 24) --> V(  1) amplitude = -0.5241 alpha
    S(  1) --> V(  1) amplitude = -0.1707 alpha
    D( 22) --> S(  1) amplitude =  0.2104 beta
    D( 24) --> V(  1) amplitude = -0.7024 beta

 ---------------------------------------------------

                    Orbital Energies (a.u.)
 --------------------------------------------------------------

 Alpha MOs
 -- Occupied --
-14.338 -10.252 -10.232 -10.230 -10.227 -10.216 -10.204  -0.960
 -0.885  -0.777  -0.661  -0.646  -0.591  -0.544  -0.506  -0.491
 -0.461  -0.422  -0.397  -0.382  -0.360  -0.312  -0.272  -0.254
 -0.197

 Beta MOs
 -- Occupied --
-14.331 -10.254 -10.232 -10.226 -10.221 -10.218 -10.200  -0.952
 -0.874  -0.773  -0.653  -0.644  -0.577  -0.540  -0.504  -0.484
 -0.457  -0.418  -0.394  -0.370  -0.348  -0.302  -0.265  -0.233

          Ground-State Mulliken Net Atomic Charges

     Atom                 Charge (a.u.)    Spin (a.u.)
  --------------------------------------------------------
      1 C                    -0.306302      -0.163644
      2 C                     0.280598       0.333536
      3 C                    -0.389285      -0.049349
      4 C                     0.240384       0.022495
      5 C                    -0.362586      -0.180949
      6 N                    -0.101801       0.342340
      7 H                     0.126907       0.008491
      8 H                     0.127751      -0.014554
      9 H                     0.140119       0.017523
     10 H                     0.138954       0.002210
     11 H                     0.143943       0.009395
     12 C                    -0.181972       0.694628
     13 H                     0.143291      -0.022122
  --------------------------------------------------------
  Sum of atomic charges =     0.000000

                    Cartesian Multipole Moments
 -----------------------------------------------------------------
    Charge (ESU x 10^10)
                 0.0000
    Dipole Moment (Debye)
         X      -2.1457      Y      -2.0318      Z      -0.0644
       Tot       2.9558
    Quadrupole Moments (Debye-Ang)
        XX     -38.2945     XY      -3.8174     YY     -42.6825
        XZ      -0.8754     YZ      -0.1650     ZZ     -43.0448

 Total job time:  294.84s(wall), 202.10s(cpu)
        *  Thank you very much for using Q-Chem.  Have a nice day.  *
