 Q-Chem 5.0, Q-Chem, Inc., Pleasanton, CA (2017)
 Q-Chem 5.0.2 for Intel X86 EM64T Linux

User input:
--------------------------------------------------------------
$molecule
0 2
C        1.6927699040    0.2588535677   -0.2991790499
C        1.1312906710   -0.9537918318   -0.1373054878
C       -0.3221313649   -1.0826897546    0.1334254348
C       -1.1721837208    0.1004379750   -0.3303298763
C       -0.3178723563    1.4206300636   -0.2916302864
N        0.9814877577    1.4530614821   -0.2498698001
H        2.7614700359    0.3676429660   -0.4659432616
H        1.7305500778   -1.8474385820   -0.3062396812
H       -0.7066697084   -2.0876506513   -0.0752902777
H       -2.1530331945   -0.1426144045   -0.7528279630
H       -0.8003756700    2.4069987973   -0.2119196833
C       -1.0304595856   -0.0652618429    1.1042055834
H       -1.8140786945    0.1615804647    1.8246887820
$end

$rem
method                b3lyp
basis                 6-31g(d)
unrestricted          true
symmetry              off
sym_ignore            true
incdft                false
incfock               0
scf_convergence       8
thresh                14
jobtype               freq
scf_guess             read
scf_algorithm         diis
max_scf_cycles        100
$end

--------------------------------------------------------------

             Standard Nuclear Orientation (Angstroms)
    I     Atom           X                Y                Z
 ----------------------------------------------------------------
    1      C       1.6927699040     0.2588535677    -0.2991790499
    2      C       1.1312906710    -0.9537918318    -0.1373054878
    3      C      -0.3221313649    -1.0826897546     0.1334254348
    4      C      -1.1721837208     0.1004379750    -0.3303298763
    5      C      -0.3178723563     1.4206300636    -0.2916302864
    6      N       0.9814877577     1.4530614821    -0.2498698001
    7      H       2.7614700359     0.3676429660    -0.4659432616
    8      H       1.7305500778    -1.8474385820    -0.3062396812
    9      H      -0.7066697084    -2.0876506513    -0.0752902777
   10      H      -2.1530331945    -0.1426144045    -0.7528279630
   11      H      -0.8003756700     2.4069987973    -0.2119196833
   12      C      -1.0304595856    -0.0652618429     1.1042055834
   13      H      -1.8140786945     0.1615804647     1.8246887820
 ----------------------------------------------------------------

    2    -286.8132222035      1.06E-09 Convergence criterion met
 Total energy in the final basis set = -286.81322220

                    Orbital Energies (a.u.)
 --------------------------------------------------------------

 Alpha MOs
 -- Occupied --
-14.326 -10.249 -10.231 -10.218 -10.216 -10.204 -10.192  -0.940
 -0.866  -0.766  -0.650  -0.627  -0.577  -0.531  -0.496  -0.483
 -0.446  -0.418  -0.384  -0.371  -0.336  -0.303  -0.257  -0.240
 -0.191

 Beta MOs
 -- Occupied --
-14.321 -10.251 -10.232 -10.216 -10.206 -10.205 -10.190  -0.934
 -0.855  -0.763  -0.646  -0.623  -0.559  -0.526  -0.495  -0.477
 -0.443  -0.414  -0.380  -0.363  -0.327  -0.296  -0.252  -0.217

          Ground-State Mulliken Net Atomic Charges

     Atom                 Charge (a.u.)    Spin (a.u.)
  --------------------------------------------------------
      1 C                    -0.001841      -0.099454
      2 C                    -0.072131       0.174335
      3 C                    -0.184721      -0.040718
      4 C                    -0.158632      -0.013863
      5 C                     0.052823      -0.124444
      6 N                    -0.375638       0.219166
      7 H                     0.138148       0.005628
      8 H                     0.134118      -0.007134
      9 H                     0.153947       0.019980
     10 H                     0.158489       0.013975
     11 H                     0.156914       0.010354
     12 C                    -0.164199       0.871127
     13 H                     0.162724      -0.028952
  --------------------------------------------------------
  Sum of atomic charges =     0.000000

                    Cartesian Multipole Moments
 -----------------------------------------------------------------
    Charge (ESU x 10^10)
                 0.0000
    Dipole Moment (Debye)
         X      -2.0038      Y      -1.5779      Z      -0.3603
       Tot       2.5758
    Quadrupole Moments (Debye-Ang)
        XX     -36.8467     XY      -3.5771     YY     -40.5449
        XZ      -1.0961     YZ       1.0905     ZZ     -42.7833

 Frequency:      -337.73                 300.61                 370.01
 Force Cnst:      0.2568                 0.1354                 0.1725
 Red. Mass:       3.8218                 2.5423                 2.1390
 IR Intens:        1.672                  3.876                 29.283
 Frequency:       412.84                 508.77                 546.67
 Force Cnst:      0.1766                 0.8139                 1.2080
 Red. Mass:       1.7582                 5.3365                 6.8604
 IR Intens:       17.379                  4.940                  8.812
 Frequency:       623.85                 670.37                 719.02
 Force Cnst:      0.6056                 1.1926                 0.9925
 Red. Mass:       2.6411                 4.5041                 3.2582
 IR Intens:       24.212                  1.339                 10.073
 Frequency:       781.66                 859.50                 885.41
 Force Cnst:      0.5777                 0.7118                 0.9381
 Red. Mass:       1.6049                 1.6354                 2.0311
 IR Intens:       30.984                  7.657                 11.720
 Frequency:       926.48                 948.17                 959.24
 Force Cnst:      0.8299                 1.1927                 0.7387
 Red. Mass:       1.6409                 2.2517                 1.3626
 IR Intens:        3.408                 10.063                  0.316
 Frequency:      1000.69                1039.55                1075.80
 Force Cnst:      1.1502                 1.0872                 1.2728
 Red. Mass:       1.9494                 1.7075                 1.8666
 IR Intens:        0.258                  3.068                  7.633
 Frequency:      1094.57                1200.11                1234.64
 Force Cnst:      1.2837                 1.3973                 1.1104
 Red. Mass:       1.8185                 1.6467                 1.2364
 IR Intens:       21.900                  3.943                  4.591
 Frequency:      1277.69                1346.37                1405.23
 Force Cnst:      1.6908                 1.6115                 1.6765
 Red. Mass:       1.7579                 1.5088                 1.4409
 IR Intens:        8.941                  6.558                  5.660
 Frequency:      1447.69                1502.94                1659.32
 Force Cnst:      2.0474                 7.7946                 8.7153
 Red. Mass:       1.6581                 5.8568                 5.3725
 IR Intens:        1.898                 18.939                 17.887
 Frequency:      3066.99                3087.97                3096.10
 Force Cnst:      6.0386                 6.1066                 6.1507
 Red. Mass:       1.0896                 1.0869                 1.0890
 IR Intens:       18.762                 13.084                 24.167
 Frequency:      3171.06                3185.44                3200.05
 Force Cnst:      6.4393                 6.5386                 6.6148
 Red. Mass:       1.0869                 1.0937                 1.0964
 IR Intens:        5.934                  1.228                 38.668

 STANDARD THERMODYNAMIC QUANTITIES AT   298.15 K  AND     1.00 ATM

   This Molecule has  1 Imaginary Frequencies
   Zero point vibrational energy:       62.336 kcal/mol

   Atom    1 Element C  Has Mass   12.00000
   Atom    2 Element C  Has Mass   12.00000
   Atom    3 Element C  Has Mass   12.00000
   Atom    4 Element C  Has Mass   12.00000
   Atom    5 Element C  Has Mass   12.00000
   Atom    6 Element N  Has Mass   14.00307
   Atom    7 Element H  Has Mass    1.00783
   Atom    8 Element H  Has Mass    1.00783
   Atom    9 Element H  Has Mass    1.00783
   Atom   10 Element H  Has Mass    1.00783
   Atom   11 Element H  Has Mass    1.00783
   Atom   12 Element C  Has Mass   12.00000
   Atom   13 Element H  Has Mass    1.00783
   Molecular Mass:    92.050050 amu
   Principal axes and moments of inertia in amu*Bohr^2:
                             1           2           3
    Eigenvalues --      381.21305   491.68156   753.51399
          X               0.92769    -0.30045     0.22163
          Y               0.27583     0.95161     0.13549
          Z              -0.25162    -0.06456     0.96567
   Rotational Symmetry Number is   1
   The Molecule is an Asymmetric Top
   Translational Enthalpy:        0.889 kcal/mol
   Rotational Enthalpy:           0.889 kcal/mol
   Vibrational Enthalpy:         63.829 kcal/mol
   gas constant (RT):             0.592 kcal/mol
   Translational Entropy:        39.471  cal/mol.K
   Rotational Entropy:           26.449  cal/mol.K
   Vibrational Entropy:           7.006  cal/mol.K

   Total Enthalpy:               66.199 kcal/mol
   Total Entropy:                72.926  cal/mol.K

 Total job time:  306.69s(wall), 260.93s(cpu)
        *  Thank you very much for using Q-Chem.  Have a nice day.  *
