 Q-Chem 5.0, Q-Chem, Inc., Pleasanton, CA (2017)
 Q-Chem 5.0.2 for Intel X86 EM64T Linux

User input:
--------------------------------------------------------------
$molecule
0 2
C        1.6430415288    0.2517533261   -0.3050692177
C        1.0642046043   -0.9753976222   -0.5713972358
C       -0.3064529218   -1.3746060039   -0.3775472847
C       -1.3192000719   -0.6072962177    0.1161753099
C       -0.1283336741    1.5926929323    0.5530850075
N        1.1640834210    1.4159503896    0.1908179326
H        2.7086628982    0.3143887595   -0.5368511541
H        1.7308187863   -1.7307544369   -0.9805400205
H       -0.5475501081   -2.3965966251   -0.6631259082
H       -2.3011701463   -1.0697558055    0.1938153130
H       -0.3135031152    2.6031266689    0.9240976694
C       -1.2357163788    0.7655138271    0.5467332376
H       -2.1588848222    1.2109808076    0.9098063506
$end

$rem
method                b3lyp
basis                 6-31g(d)
unrestricted          true
symmetry              off
sym_ignore            true
incdft                false
incfock               0
scf_convergence       8
thresh                14
jobtype               opt
scf_guess             read
scf_algorithm         diis
max_scf_cycles        100
geom_opt_tol_gradient 600
geom_opt_tol_displacement 2400
geom_opt_tol_energy   200
geom_opt_max_cycles   100
$end

--------------------------------------------------------------

    2    -286.9243284570      1.16E-09 Convergence criterion met
 Total energy in the final basis set = -286.92432846
   12    -286.9243314289      9.00E-09 Convergence criterion met
 Total energy in the final basis set = -286.92433143

             Standard Nuclear Orientation (Angstroms)
    I     Atom           X                Y                Z
 ----------------------------------------------------------------
    1      C       1.6431659516     0.2517518055    -0.3059945544
    2      C       1.0642663519    -0.9748364187    -0.5728894327
    3      C      -0.3067030310    -1.3733938317    -0.3793708757
    4      C      -1.3201193689    -0.6068124458     0.1138481143
    5      C      -0.1286120953     1.5922685951     0.5529318098
    6      N       1.1635622992     1.4161146092     0.1895826701
    7      H       2.7090088651     0.3144864923    -0.5365020459
    8      H       1.7315219780    -1.7312977609    -0.9790055918
    9      H      -0.5470504884    -2.3970423589    -0.6595830854
   10      H      -2.3016642788    -1.0696242903     0.1943189811
   11      H      -0.3133219092     2.6017325232     0.9269854507
   12      C      -1.2359807608     0.7654864571     0.5451755852
   13      H      -2.1580735132     1.2111666234     0.9105029745
 ----------------------------------------------------------------

   11    -286.9243316471      6.62E-09 Convergence criterion met
 Total energy in the final basis set = -286.92433165
 Final energy is   -286.924331647058
 **  OPTIMIZATION CONVERGED  **

                    Orbital Energies (a.u.)
 --------------------------------------------------------------

 Alpha MOs
 -- Occupied --
-14.322 -10.232 -10.232 -10.212 -10.211 -10.201 -10.201  -0.922
 -0.818  -0.784  -0.693  -0.667  -0.551  -0.537  -0.518  -0.449
 -0.439  -0.414  -0.394  -0.386  -0.349  -0.322  -0.299  -0.251
 -0.162

 Beta MOs
 -- Occupied --
-14.314 -10.233 -10.233 -10.210 -10.210 -10.196 -10.196  -0.911
 -0.809  -0.777  -0.681  -0.665  -0.546  -0.534  -0.514  -0.447
 -0.438  -0.411  -0.383  -0.373  -0.348  -0.295  -0.276  -0.241

          Ground-State Mulliken Net Atomic Charges

     Atom                 Charge (a.u.)    Spin (a.u.)
  --------------------------------------------------------
      1 C                     0.036089      -0.113275
      2 C                    -0.131844       0.348127
      3 C                    -0.111131       0.092368
      4 C                    -0.111610       0.095153
      5 C                     0.035672      -0.111928
      6 N                    -0.423582       0.386842
      7 H                     0.142524       0.003434
      8 H                     0.134376      -0.018387
      9 H                     0.142000      -0.006572
     10 H                     0.141954      -0.006704
     11 H                     0.142584       0.003368
     12 C                    -0.131415       0.345852
     13 H                     0.134384      -0.018280
  --------------------------------------------------------
  Sum of atomic charges =    -0.000000

                    Cartesian Multipole Moments
 -----------------------------------------------------------------
    Charge (ESU x 10^10)
                -0.0000
    Dipole Moment (Debye)
         X      -1.4177      Y      -1.7251      Z      -0.2313
       Tot       2.2448
    Quadrupole Moments (Debye-Ang)
        XX     -37.9397     XY      -3.3126     YY     -39.8927
        XZ      -2.3703     YZ       1.9234     ZZ     -42.1682

 Total job time:  27.08s(wall), 86.49s(cpu)
        *  Thank you very much for using Q-Chem.  Have a nice day.  *
