 Q-Chem 5.0, Q-Chem, Inc., Pleasanton, CA (2017)
 Q-Chem 5.0.2 for Intel X86 EM64T Linux

User input:
--------------------------------------------------------------
$molecule
0 2
C        1.3151027935    0.3012423683    0.2424793701
C        0.6079990778   -0.9997781248   -0.1847108476
C       -0.6875713792   -0.4639940429   -0.8464339154
C       -1.0789587822    0.1903151535    0.4517509954
C       -0.5226497535    1.0618203701   -0.6902516796
N        0.8259611950    1.4212460917   -0.4674647155
H        2.3529844647    0.2887903507    0.5534157019
H        1.1207086068   -1.9358306930   -0.3734148954
H       -1.2903210865   -0.9334979978   -1.6148359459
H       -2.0530641835    0.3350704327    0.9041662727
H       -1.1691861356    1.7472428380   -1.2252741464
C        0.2171878551   -0.3458057880    1.1129540776
H        0.3618073278   -0.6668209588    2.1376197284
$end

$rem
method                b3lyp
basis                 6-31+g(d,p)
unrestricted          true
symmetry              off
sym_ignore            true
incdft                false
incfock               0
scf_convergence       8
thresh                14
jobtype               sp
scf_guess             read
scf_algorithm         diis
max_scf_cycles        100
scf_final_print       1
$end

--------------------------------------------------------------

             Standard Nuclear Orientation (Angstroms)
    I     Atom           X                Y                Z
 ----------------------------------------------------------------
    1      C       1.3151027935     0.3012423683     0.2424793701
    2      C       0.6079990778    -0.9997781248    -0.1847108476
    3      C      -0.6875713792    -0.4639940429    -0.8464339154
    4      C      -1.0789587822     0.1903151535     0.4517509954
    5      C      -0.5226497535     1.0618203701    -0.6902516796
    6      N       0.8259611950     1.4212460917    -0.4674647155
    7      H       2.3529844647     0.2887903507     0.5534157019
    8      H       1.1207086068    -1.9358306930    -0.3734148954
    9      H      -1.2903210865    -0.9334979978    -1.6148359459
   10      H      -2.0530641835     0.3350704327     0.9041662727
   11      H      -1.1691861356     1.7472428380    -1.2252741464
   12      C       0.2171878551    -0.3458057880     1.1129540776
   13      H       0.3618073278    -0.6668209588     2.1376197284
 ----------------------------------------------------------------

    2    -286.8454180509      1.08E-09 Convergence criterion met
 Total energy in the final basis set = -286.84541805

                    Orbital Energies (a.u.)
 --------------------------------------------------------------

 Alpha MOs
 -- Occupied --
-14.349 -10.225 -10.225 -10.216 -10.216 -10.216 -10.216  -0.996
 -0.846  -0.802  -0.657  -0.597  -0.582  -0.549  -0.540  -0.462
 -0.435  -0.424  -0.405  -0.393  -0.346  -0.286  -0.283  -0.257
 -0.223

 Beta MOs
 -- Occupied --
-14.333 -10.226 -10.226 -10.215 -10.214 -10.214 -10.214  -0.986
 -0.822  -0.798  -0.652  -0.594  -0.577  -0.544  -0.536  -0.460
 -0.431  -0.400  -0.399  -0.387  -0.331  -0.278  -0.269  -0.253

          Ground-State Mulliken Net Atomic Charges

     Atom                 Charge (a.u.)    Spin (a.u.)
  --------------------------------------------------------
      1 C                    -0.289422      -0.080294
      2 C                    -0.037727       0.086805
      3 C                    -0.042364       0.089139
      4 C                    -0.039817       0.086586
      5 C                    -0.288937      -0.079969
      6 N                    -0.070384       0.814896
      7 H                     0.141284       0.001073
      8 H                     0.131954      -0.002075
      9 H                     0.131584      -0.002212
     10 H                     0.131839      -0.002080
     11 H                     0.141468       0.001060
     12 C                    -0.041100       0.089254
     13 H                     0.131621      -0.002183
  --------------------------------------------------------
  Sum of atomic charges =     0.000000

                    Cartesian Multipole Moments
 -----------------------------------------------------------------
    Charge (ESU x 10^10)
                -0.0000
    Dipole Moment (Debye)
         X      -1.2331      Y      -2.1224      Z       0.6966
       Tot       2.5516
    Quadrupole Moments (Debye-Ang)
        XX     -38.8399     XY      -4.3248     YY     -44.9169
        XZ       2.6345     YZ       0.9555     ZZ     -40.1524

 Total job time:  3.59s(wall), 11.76s(cpu)
        *  Thank you very much for using Q-Chem.  Have a nice day.  *
