 Q-Chem 5.0, Q-Chem, Inc., Pleasanton, CA (2017)
 Q-Chem 5.0.2 for Intel X86 EM64T Linux

User input:
--------------------------------------------------------------
$molecule
0 2
C        1.5404481069    0.3533039863   -0.1459713907
C        0.6541557698   -0.8818156118   -0.0422716360
C       -0.6263990369   -0.4224625202   -0.8282597536
C       -1.1675337861    0.1249516880    0.5113350496
C       -0.4835393717    1.0394290617   -0.6064620589
N        0.8902065643    1.4288125494   -0.4144075682
H        2.5952945101    0.3715749375    0.1188188954
H        1.1168405453   -1.8554293134   -0.2136583156
H       -1.1516095290   -0.9414060931   -1.6236447970
H       -2.1794905964    0.3688445792    0.8160856865
H       -1.1497112826    1.7576362622   -1.0715013955
C       -0.1646605617   -0.6516902820    1.2267076423
H        0.1259986679   -0.6917492440    2.2732296417
$end

$rem
method                b3lyp
basis                 6-31+g(d,p)
unrestricted          true
symmetry              off
sym_ignore            true
incdft                false
incfock               0
scf_convergence       6
thresh                14
jobtype               sp
scf_guess             read
scf_algorithm         diis
max_scf_cycles        100
stability_analysis    true
max_cis_cycles        100
cis_n_roots           4
$end

--------------------------------------------------------------

             Standard Nuclear Orientation (Angstroms)
    I     Atom           X                Y                Z
 ----------------------------------------------------------------
    1      C       1.5404481069     0.3533039863    -0.1459713907
    2      C       0.6541557698    -0.8818156118    -0.0422716360
    3      C      -0.6263990369    -0.4224625202    -0.8282597536
    4      C      -1.1675337861     0.1249516880     0.5113350496
    5      C      -0.4835393717     1.0394290617    -0.6064620589
    6      N       0.8902065643     1.4288125494    -0.4144075682
    7      H       2.5952945101     0.3715749375     0.1188188954
    8      H       1.1168405453    -1.8554293134    -0.2136583156
    9      H      -1.1516095290    -0.9414060931    -1.6236447970
   10      H      -2.1794905964     0.3688445792     0.8160856865
   11      H      -1.1497112826     1.7576362622    -1.0715013955
   12      C      -0.1646605617    -0.6516902820     1.2267076423
   13      H       0.1259986679    -0.6917492440     2.2732296417
 ----------------------------------------------------------------

    2    -286.8593896084      1.02E-09 Convergence criterion met
 Total energy in the final basis set = -286.85938961

         TDDFT/TDA Excitation Energies
 ---------------------------------------------------

 Excited state   1: excitation energy (eV) =    3.5194
 Total energy for state  1:                  -286.73005523 au
    <S**2>     :  1.0009
    Trans. Mom.:  0.3185 X   0.1366 Y  -0.1363 Z
    Strength   :     0.0119564563
    S(  1) --> V(  1) amplitude =  0.8287 alpha
    D( 23) --> S(  1) amplitude =  0.3724 beta
    D( 24) --> S(  1) amplitude =  0.3478 beta

 Excited state   2: excitation energy (eV) =    3.5410
 Total energy for state  2:                  -286.72925921 au
    <S**2>     :  1.1468
    Trans. Mom.: -0.0583 X  -0.1031 Y  -0.0211 Z
    Strength   :     0.0012552807
    D( 24) --> V(  1) amplitude = -0.2129 alpha
    S(  1) --> V(  1) amplitude = -0.2932 alpha
    D( 23) --> S(  1) amplitude = -0.2418 beta
    D( 24) --> S(  1) amplitude =  0.8681 beta

 Excited state   3: excitation energy (eV) =    4.0914
 Total energy for state  3:                  -286.70903450 au
    <S**2>     :  0.8731
    Trans. Mom.: -0.3084 X  -0.3111 Y   0.3346 Z
    Strength   :     0.0304560706
    S(  1) --> V(  1) amplitude = -0.4381 alpha
    D( 23) --> S(  1) amplitude =  0.8537 beta
    D( 23) --> V(  1) amplitude =  0.1521 beta

 Excited state   4: excitation energy (eV) =    4.4287
 Total energy for state  4:                  -286.69663802 au
    <S**2>     :  0.8128
    Trans. Mom.:  0.0982 X   0.1117 Y   0.0411 Z
    Strength   :     0.0025831965
    S(  1) --> V(  2) amplitude =  0.9838 alpha

 ---------------------------------------------------

                    Orbital Energies (a.u.)
 --------------------------------------------------------------

 Alpha MOs
 -- Occupied --
-14.334 -10.234 -10.230 -10.220 -10.219 -10.218 -10.217  -0.979
 -0.866  -0.759  -0.674  -0.615  -0.580  -0.543  -0.525  -0.475
 -0.448  -0.415  -0.410  -0.366  -0.347  -0.308  -0.285  -0.267
 -0.192

 Beta MOs
 -- Occupied --
-14.333 -10.232 -10.230 -10.220 -10.219 -10.217 -10.205  -0.975
 -0.861  -0.752  -0.662  -0.611  -0.576  -0.536  -0.519  -0.469
 -0.443  -0.412  -0.404  -0.358  -0.342  -0.301  -0.274  -0.261

          Ground-State Mulliken Net Atomic Charges

     Atom                 Charge (a.u.)    Spin (a.u.)
  --------------------------------------------------------
      1 C                    -0.057704       0.051515
      2 C                    -0.023699      -0.113382
      3 C                    -0.062846       0.075111
      4 C                    -0.048319      -0.155193
      5 C                    -0.292218       0.109643
      6 N                    -0.168812       0.038821
      7 H                     0.131426       0.001008
      8 H                     0.134623       0.024652
      9 H                     0.132486      -0.000064
     10 H                     0.139109       0.005466
     11 H                     0.144367       0.003114
     12 C                    -0.158174       0.979680
     13 H                     0.129763      -0.020374
  --------------------------------------------------------
  Sum of atomic charges =    -0.000000

                    Cartesian Multipole Moments
 -----------------------------------------------------------------
    Charge (ESU x 10^10)
                -0.0000
    Dipole Moment (Debye)
         X      -0.9108      Y      -2.0328      Z       0.0576
       Tot       2.2283
    Quadrupole Moments (Debye-Ang)
        XX     -38.2247     XY      -4.8620     YY     -46.1367
        XZ       2.1394     YZ       1.1911     ZZ     -40.7609

 Total job time:  191.59s(wall), 187.62s(cpu)
        *  Thank you very much for using Q-Chem.  Have a nice day.  *
