 Q-Chem 5.0, Q-Chem, Inc., Pleasanton, CA (2017)
 Q-Chem 5.0.2 for Intel X86 EM64T Linux

User input:
--------------------------------------------------------------
$molecule
0 2
C        1.4013503399    0.3172338705    0.0795560666
C        0.6147584234   -0.9658931029   -0.1480172801
C       -0.6756299217   -0.4556358950   -0.8536519498
C       -1.1053130040    0.1905952288    0.4633145275
C       -0.5200503082    1.0513429833   -0.6623080362
N        0.8439228240    1.4225982673   -0.4298681842
H        2.4090537342    0.3144509717    0.4790876957
H        1.1142896254   -1.9136827708   -0.3314648101
H       -1.2575595411   -0.9537012497   -1.6208076668
H       -2.0913171172    0.3521581167    0.8823914992
H       -1.1628450577    1.7469790300   -1.1892258181
C        0.0967980247   -0.4429620852    1.1398512642
H        0.3220389766   -0.6698270218    2.1735224100
$end

$rem
method                b3lyp
basis                 6-31+g(d,p)
unrestricted          true
symmetry              off
sym_ignore            true
incdft                false
incfock               0
scf_convergence       6
thresh                14
jobtype               sp
scf_guess             read
scf_algorithm         diis
max_scf_cycles        100
stability_analysis    true
max_cis_cycles        100
cis_n_roots           4
$end

--------------------------------------------------------------

             Standard Nuclear Orientation (Angstroms)
    I     Atom           X                Y                Z
 ----------------------------------------------------------------
    1      C       1.4013503399     0.3172338705     0.0795560666
    2      C       0.6147584234    -0.9658931029    -0.1480172801
    3      C      -0.6756299217    -0.4556358950    -0.8536519498
    4      C      -1.1053130040     0.1905952288     0.4633145275
    5      C      -0.5200503082     1.0513429833    -0.6623080362
    6      N       0.8439228240     1.4225982673    -0.4298681842
    7      H       2.4090537342     0.3144509717     0.4790876957
    8      H       1.1142896254    -1.9136827708    -0.3314648101
    9      H      -1.2575595411    -0.9537012497    -1.6208076668
   10      H      -2.0913171172     0.3521581167     0.8823914992
   11      H      -1.1628450577     1.7469790300    -1.1892258181
   12      C       0.0967980247    -0.4429620852     1.1398512642
   13      H       0.3220389766    -0.6698270218     2.1735224100
 ----------------------------------------------------------------

    2    -286.8367415060      3.70E-09 Convergence criterion met
 Total energy in the final basis set = -286.83674151

         TDDFT/TDA Excitation Energies
 ---------------------------------------------------

 Excited state   1: excitation energy (eV) =    2.6027
 Total energy for state  1:                  -286.74109287 au
    <S**2>     :  0.7683
    Trans. Mom.: -0.0193 X   0.3324 Y  -0.2081 Z
    Strength   :     0.0098319100
    D( 23) --> S(  1) amplitude =  0.1702 beta
    D( 24) --> S(  1) amplitude =  0.9589 beta

 Excited state   2: excitation energy (eV) =    2.9547
 Total energy for state  2:                  -286.72816009 au
    <S**2>     :  0.7892
    Trans. Mom.: -0.0420 X  -0.0570 Y   0.0190 Z
    Strength   :     0.0003891649
    D( 22) --> S(  1) amplitude = -0.2060 beta
    D( 23) --> S(  1) amplitude =  0.9504 beta
    D( 24) --> S(  1) amplitude = -0.1850 beta

 Excited state   3: excitation energy (eV) =    3.8746
 Total energy for state  3:                  -286.69435368 au
    <S**2>     :  0.7894
    Trans. Mom.: -0.2008 X   0.0092 Y  -0.1482 Z
    Strength   :     0.0059217338
    D( 22) --> S(  1) amplitude =  0.9675 beta
    D( 23) --> S(  1) amplitude =  0.2178 beta

 Excited state   4: excitation energy (eV) =    4.6569
 Total energy for state  4:                  -286.66560387 au
    <S**2>     :  0.8225
    Trans. Mom.:  0.1110 X  -0.0005 Y  -0.1221 Z
    Strength   :     0.0031068595
    S(  1) --> V(  1) amplitude =  0.9810 alpha
    S(  1) --> V(  2) amplitude = -0.1586 alpha

 ---------------------------------------------------

                    Orbital Energies (a.u.)
 --------------------------------------------------------------

 Alpha MOs
 -- Occupied --
-14.336 -10.230 -10.230 -10.225 -10.221 -10.216 -10.214  -0.990
 -0.853  -0.786  -0.664  -0.603  -0.582  -0.549  -0.537  -0.456
 -0.451  -0.418  -0.414  -0.387  -0.350  -0.293  -0.278  -0.256
 -0.202

 Beta MOs
 -- Occupied --
-14.325 -10.232 -10.226 -10.222 -10.220 -10.215 -10.214  -0.980
 -0.837  -0.781  -0.654  -0.601  -0.577  -0.543  -0.532  -0.453
 -0.445  -0.411  -0.403  -0.378  -0.338  -0.287  -0.265  -0.241

          Ground-State Mulliken Net Atomic Charges

     Atom                 Charge (a.u.)    Spin (a.u.)
  --------------------------------------------------------
      1 C                    -0.238320      -0.147448
      2 C                     0.043510      -0.025527
      3 C                    -0.073244       0.098973
      4 C                    -0.023216      -0.032116
      5 C                    -0.276691      -0.019427
      6 N                    -0.111546       0.576604
      7 H                     0.141043       0.003595
      8 H                     0.130683       0.012039
      9 H                     0.130552      -0.004502
     10 H                     0.134621      -0.000689
     11 H                     0.140817       0.000737
     12 C                    -0.138886       0.560921
     13 H                     0.140679      -0.023160
  --------------------------------------------------------
  Sum of atomic charges =     0.000000

                    Cartesian Multipole Moments
 -----------------------------------------------------------------
    Charge (ESU x 10^10)
                 0.0000
    Dipole Moment (Debye)
         X      -1.1275      Y      -2.4753      Z       0.6412
       Tot       2.7946
    Quadrupole Moments (Debye-Ang)
        XX     -38.7878     XY      -4.6978     YY     -45.4493
        XZ       2.5200     YZ       0.7102     ZZ     -40.0848

 Total job time:  187.41s(wall), 182.14s(cpu)
        *  Thank you very much for using Q-Chem.  Have a nice day.  *
