 Q-Chem 5.0, Q-Chem, Inc., Pleasanton, CA (2017)
 Q-Chem 5.0.2 for Intel X86 EM64T Linux

User input:
--------------------------------------------------------------
$molecule
0 2
C        1.3119832026    0.3024639842    0.2418450666
C        0.6067813895   -1.0007324541   -0.1827277502
C       -0.6879962090   -0.4652710104   -0.8442673523
C       -1.0782594737    0.1910344549    0.4506508298
C       -0.5191779217    1.0594042307   -0.6924931429
N        0.8290508102    1.4231658196   -0.4713972156
H        2.3485696173    0.2892655803    0.5603271076
H        1.1221951757   -1.9351789616   -0.3745474573
H       -1.2950975532   -0.9364177124   -1.6091722851
H       -2.0524462795    0.3360300536    0.9040256583
H       -1.1654104444    1.7420801816   -1.2331782201
C        0.2167898071   -0.3445443101    1.1121710373
H        0.3630178796   -0.6612998559    2.1387637239
****
C        1.5118584255    0.4410083134   -0.1341162498
C        0.6769449981   -0.8533214754   -0.0641303673
C       -0.2815298246   -0.4771797739   -1.1988780254
C       -1.0851578665    0.4076680084    0.7574471669
C       -0.5921140648    0.8950345211   -0.6144649768
N        0.8087694981    1.4610701433   -0.4397673780
H        2.5781980340    0.5069451851    0.0754034969
H        1.2132738690   -1.8019432397   -0.0910525739
H       -1.0465140050   -1.1584929116   -1.5679718807
H       -1.8811071954    0.8674935872    1.3328436099
H       -1.2390329299    1.5844816635   -1.1548326890
C       -0.3196676418   -0.6430114166    1.0938769909
H       -0.3439212965   -1.2297526047    2.0056428765
$end

$rem
method                b3lyp
basis                 6-31g(d)
unrestricted          true
symmetry              off
sym_ignore            true
incdft                false
incfock               0
scf_convergence       8
thresh                14
jobtype               fsm
scf_guess             core
scf_guess_mix         5
scf_algorithm         diis
max_scf_cycles        100
fsm_nnode             21
fsm_ngrad             6
fsm_mode              2
fsm_opt_mode          2
$end

--------------------------------------------------------------

   20    -286.8249557164      5.82E-09 Convergence criterion met
 Total energy in the final basis set = -286.82495572
   21    -286.8516529398      6.35E-09 Convergence criterion met
 Total energy in the final basis set = -286.85165294
   21    -286.8234961615      9.84E-09 Convergence criterion met
 Total energy in the final basis set = -286.82349616
   21    -286.8231678079      7.61E-09 Convergence criterion met
 Total energy in the final basis set = -286.82316781
   21    -286.8173305412      5.00E-09 Convergence criterion met
 Total energy in the final basis set = -286.81733054
   22    -286.8222648604      2.52E-09 Convergence criterion met
 Total energy in the final basis set = -286.82226486
   21    -286.8506393182      5.74E-09 Convergence criterion met
 Total energy in the final basis set = -286.85063932
   21    -286.8470021926      3.58E-09 Convergence criterion met
 Total energy in the final basis set = -286.80693674
   21    -286.8074027059      9.57E-09 Convergence criterion met
 Total energy in the final basis set = -286.80740271
   21    -286.8069823244      9.47E-09 Convergence criterion met
 Total energy in the final basis set = -286.80698232
   21    -286.8073636842      9.52E-09 Convergence criterion met
 Total energy in the final basis set = -286.80736368
   21    -286.8070368422      9.51E-09 Convergence criterion met
 Total energy in the final basis set = -286.80703684
   21    -286.8073154101      9.50E-09 Convergence criterion met
 Total energy in the final basis set = -286.80731541
   21    -286.8070743934      9.61E-09 Convergence criterion met
 Total energy in the final basis set = -286.80707439
   21    -286.8072824240      9.44E-09 Convergence criterion met
 Total energy in the final basis set = -286.80728242

                    Orbital Energies (a.u.)
 --------------------------------------------------------------

 Alpha MOs
 -- Occupied --
-14.324 -10.221 -10.217 -10.215 -10.215 -10.205 -10.204  -0.981
 -0.839  -0.778  -0.657  -0.591  -0.574  -0.542  -0.526  -0.452
 -0.431  -0.417  -0.404  -0.373  -0.341  -0.280  -0.271  -0.243
 -0.195

 Beta MOs
 -- Occupied --
-14.311 -10.223 -10.216 -10.215 -10.210 -10.204 -10.204  -0.971
 -0.820  -0.773  -0.649  -0.589  -0.568  -0.537  -0.521  -0.449
 -0.424  -0.403  -0.399  -0.364  -0.329  -0.275  -0.253  -0.229

          Ground-State Mulliken Net Atomic Charges

     Atom                 Charge (a.u.)    Spin (a.u.)
  --------------------------------------------------------
      1 C                    -0.012642      -0.141811
      2 C                    -0.163979       0.043427
      3 C                    -0.104744       0.115976
      4 C                    -0.142114       0.014050
      5 C                    -0.046217      -0.049599
      6 N                    -0.301046       0.652649
      7 H                     0.147558       0.002493
      8 H                     0.147588       0.004685
      9 H                     0.143245      -0.005969
     10 H                     0.144259      -0.001560
     11 H                     0.150576       0.000794
     12 C                    -0.111190       0.379580
     13 H                     0.148706      -0.014716
  --------------------------------------------------------
  Sum of atomic charges =    -0.000000

                    Cartesian Multipole Moments
 -----------------------------------------------------------------
    Charge (ESU x 10^10)
                -0.0000
    Dipole Moment (Debye)
         X      -1.0513      Y      -2.1985      Z       0.5250
       Tot       2.4929
    Quadrupole Moments (Debye-Ang)
        XX     -38.2418     XY      -4.2138     YY     -43.2629
        XZ       1.7307     YZ       0.5124     ZZ     -39.3491

             Standard Nuclear Orientation (Angstroms)
    I     Atom           X                Y                Z
 ----------------------------------------------------------------
    1      C       1.3834103499     0.3449444629     0.1272592852
    2      C       0.6198049440    -0.9565704023    -0.1481462352
    3      C      -0.6591403381    -0.4666362367    -0.8792357556
    4      C      -1.0953438149     0.2083338920     0.4703085380
    5      C      -0.5258152349     1.0371934493    -0.6697406658
    6      N       0.8309288842     1.4293298917    -0.4522370656
    7      H       2.4295416845     0.3545141575     0.4225108570
    8      H       1.1400089896    -1.8998724246    -0.2854477485
    9      H      -1.2340558435    -1.0013116192    -1.6323785415
   10      H      -2.0159332370     0.4750974435     0.9820388509
   11      H      -1.1912130922     1.7064678898    -1.2010286497
   12      C       0.1347098512    -0.3995556310     1.1282024796
   13      H       0.1725938556    -0.8382785300     2.1202743690
 ----------------------------------------------------------------

 Total job time:  1798.72s(wall), 4617.82s(cpu)
        *  Thank you very much for using Q-Chem.  Have a nice day.  *
