 Q-Chem 5.0, Q-Chem, Inc., Pleasanton, CA (2017)
 Q-Chem 5.0.2 for Intel X86 EM64T Linux

User input:
--------------------------------------------------------------
$molecule
0 2
C        1.4013503399    0.3172338705    0.0795560666
C        0.6147584234   -0.9658931029   -0.1480172801
C       -0.6756299217   -0.4556358950   -0.8536519498
C       -1.1053130040    0.1905952288    0.4633145275
C       -0.5200503082    1.0513429833   -0.6623080362
N        0.8439228240    1.4225982673   -0.4298681842
H        2.4090537342    0.3144509717    0.4790876957
H        1.1142896254   -1.9136827708   -0.3314648101
H       -1.2575595411   -0.9537012497   -1.6208076668
H       -2.0913171172    0.3521581167    0.8823914992
H       -1.1628450577    1.7469790300   -1.1892258181
C        0.0967980247   -0.4429620852    1.1398512642
H        0.3220389766   -0.6698270218    2.1735224100
$end

$rem
method                b3lyp
basis                 6-31+g(d,p)
unrestricted          true
symmetry              off
sym_ignore            true
incdft                false
incfock               0
scf_convergence       8
thresh                14
jobtype               rpath
scf_guess             core
scf_guess_mix         5
scf_algorithm         diis
max_scf_cycles        100
rpath_direction       1
rpath_tol_displacement 1000
rpath_max_cycles      50
geom_opt_max_cycles   300
geom_opt_hessian      read
$end

--------------------------------------------------------------

   22    -286.8367415060      6.28E-09 Convergence criterion met
 Total energy in the final basis set = -286.83674151
   22    -286.8383871595      6.44E-09 Convergence criterion met
 Total energy in the final basis set = -286.83838716
   22    -286.8383509804      5.11E-09 Convergence criterion met
 Total energy in the final basis set = -286.83835098
   22    -286.8383894272      6.61E-09 Convergence criterion met
 Total energy in the final basis set = -286.83838943
   22    -286.8419122320      2.93E-09 Convergence criterion met
 Total energy in the final basis set = -286.84191223
   22    -286.8418227109      3.78E-09 Convergence criterion met
 Total energy in the final basis set = -286.84182271
   22    -286.8419203438      2.97E-09 Convergence criterion met
 Total energy in the final basis set = -286.84192034
   22    -286.8445214729      3.89E-09 Convergence criterion met
 Total energy in the final basis set = -286.85779732
   21    -286.8593909113      4.64E-09 Convergence criterion met
 Total energy in the final basis set = -286.85939091
   21    -286.8593894859      4.71E-09 Convergence criterion met
 Total energy in the final basis set = -286.85938949
   21    -286.8593925435      4.67E-09 Convergence criterion met
 Total energy in the final basis set = -286.85939254
   21    -286.8581629515      5.02E-09 Convergence criterion met
 Total energy in the final basis set = -286.85816295
   21    -286.8593965831      4.68E-09 Convergence criterion met
 Total energy in the final basis set = -286.85939658
   21    -286.8593940031      4.70E-09 Convergence criterion met
 Total energy in the final basis set = -286.85939400
   21    -286.8593984922      4.69E-09 Convergence criterion met
 Total energy in the final basis set = -286.85939849

                    Orbital Energies (a.u.)
 --------------------------------------------------------------

 Alpha MOs
 -- Occupied --
-14.334 -10.234 -10.230 -10.220 -10.219 -10.218 -10.217  -0.979
 -0.866  -0.759  -0.674  -0.615  -0.580  -0.543  -0.525  -0.475
 -0.448  -0.415  -0.410  -0.366  -0.347  -0.308  -0.285  -0.267
 -0.192

 Beta MOs
 -- Occupied --
-14.333 -10.232 -10.230 -10.220 -10.219 -10.217 -10.205  -0.975
 -0.861  -0.752  -0.662  -0.611  -0.576  -0.536  -0.519  -0.469
 -0.443  -0.412  -0.404  -0.358  -0.342  -0.301  -0.274  -0.261

          Ground-State Mulliken Net Atomic Charges

     Atom                 Charge (a.u.)    Spin (a.u.)
  --------------------------------------------------------
      1 C                    -0.057698       0.051626
      2 C                    -0.023498      -0.113432
      3 C                    -0.062974       0.075337
      4 C                    -0.048295      -0.155209
      5 C                    -0.292235       0.109566
      6 N                    -0.168891       0.038611
      7 H                     0.131435       0.001002
      8 H                     0.134626       0.024611
      9 H                     0.132503      -0.000043
     10 H                     0.139097       0.005465
     11 H                     0.144355       0.003118
     12 C                    -0.158223       0.979773
     13 H                     0.129798      -0.020425
  --------------------------------------------------------
  Sum of atomic charges =    -0.000000

                    Cartesian Multipole Moments
 -----------------------------------------------------------------
    Charge (ESU x 10^10)
                -0.0000
    Dipole Moment (Debye)
         X      -0.9117      Y      -2.0355      Z       0.0544
       Tot       2.2310
    Quadrupole Moments (Debye-Ang)
        XX     -38.2315     XY      -4.8620     YY     -46.1392
        XZ       2.1388     YZ       1.1764     ZZ     -40.7497

             Standard Nuclear Orientation (Angstroms)
    I     Atom           X                Y                Z
 ----------------------------------------------------------------
    1      C       1.4013503399     0.3172338705     0.0795560666
    2      C       0.6147584234    -0.9658931029    -0.1480172801
    3      C      -0.6756299217    -0.4556358950    -0.8536519498
    4      C      -1.1053130040     0.1905952288     0.4633145275
    5      C      -0.5200503082     1.0513429833    -0.6623080362
    6      N       0.8439228240     1.4225982673    -0.4298681842
    7      H       2.4090537342     0.3144509717     0.4790876957
    8      H       1.1142896254    -1.9136827708    -0.3314648101
    9      H      -1.2575595411    -0.9537012497    -1.6208076668
   10      H      -2.0913171172     0.3521581167     0.8823914992
   11      H      -1.1628450577     1.7469790300    -1.1892258181
   12      C       0.0967980247    -0.4429620852     1.1398512642
   13      H       0.3220389766    -0.6698270218     2.1735224100
 ----------------------------------------------------------------

 Total job time:  5321.83s(wall), 17026.12s(cpu)
        *  Thank you very much for using Q-Chem.  Have a nice day.  *
