 Q-Chem 5.0, Q-Chem, Inc., Pleasanton, CA (2017)
 Q-Chem 5.0.2 for Intel X86 EM64T Linux

User input:
--------------------------------------------------------------
$molecule
0 2
C        1.5112798226    0.4411874797   -0.1333489374
C        0.6763030072   -0.8531720431   -0.0651134598
C       -0.2806988120   -0.4770748989   -1.1996092507
C       -1.0849685920    0.4078340412    0.7580059451
C       -0.5929735257    0.8947503755   -0.6140878017
N        0.8084819660    1.4610741319   -0.4398073906
H        2.5777348701    0.5068071411    0.0758162693
H        1.2123103143   -1.8019708848   -0.0914357383
H       -1.0445361797   -1.1594329026   -1.5688383679
H       -1.8796206543    0.8694122942    1.3338757905
H       -1.2396863957    1.5838799695   -1.1550399084
C       -0.3197753656   -0.6435755800    1.0936728013
H       -0.3438504550   -1.2297191237    2.0059100486
$end

$rem
method                b3lyp
basis                 6-31g(d)
unrestricted          true
symmetry              off
sym_ignore            true
incdft                false
incfock               0
scf_convergence       8
thresh                14
jobtype               opt
scf_guess             core
scf_guess_mix         5
scf_algorithm         diis
max_scf_cycles        100
geom_opt_max_cycles   300
$end

--------------------------------------------------------------

   21    -286.8516502996      6.39E-09 Convergence criterion met
 Total energy in the final basis set = -286.85165030
   16    -286.8516513916      3.92E-09 Convergence criterion met
 Total energy in the final basis set = -286.85165139
   16    -286.8516526367      3.98E-09 Convergence criterion met
 Total energy in the final basis set = -286.85165264

             Standard Nuclear Orientation (Angstroms)
    I     Atom           X                Y                Z
 ----------------------------------------------------------------
    1      C       1.5118584255     0.4410083134    -0.1341162498
    2      C       0.6769449981    -0.8533214754    -0.0641303673
    3      C      -0.2815298246    -0.4771797739    -1.1988780254
    4      C      -1.0851578665     0.4076680084     0.7574471669
    5      C      -0.5921140648     0.8950345211    -0.6144649768
    6      N       0.8087694981     1.4610701433    -0.4397673780
    7      H       2.5781980340     0.5069451851     0.0754034969
    8      H       1.2132738690    -1.8019432397    -0.0910525739
    9      H      -1.0465140050    -1.1584929116    -1.5679718807
   10      H      -1.8811071954     0.8674935872     1.3328436099
   11      H      -1.2390329299     1.5844816635    -1.1548326890
   12      C      -0.3196676418    -0.6430114166     1.0938769909
   13      H      -0.3439212965    -1.2297526047     2.0056428765
 ----------------------------------------------------------------

   16    -286.8516529382      3.99E-09 Convergence criterion met
 Total energy in the final basis set = -286.85165294
 Final energy is   -286.851652938190
 **  OPTIMIZATION CONVERGED  **

                    Orbital Energies (a.u.)
 --------------------------------------------------------------

 Alpha MOs
 -- Occupied --
-14.322 -10.224 -10.220 -10.210 -10.204 -10.201 -10.197  -0.952
 -0.821  -0.726  -0.705  -0.579  -0.573  -0.531  -0.512  -0.472
 -0.418  -0.410  -0.381  -0.373  -0.348  -0.294  -0.271  -0.258
 -0.196

 Beta MOs
 -- Occupied --
-14.321 -10.224 -10.221 -10.210 -10.200 -10.196 -10.190  -0.949
 -0.815  -0.725  -0.690  -0.577  -0.561  -0.527  -0.509  -0.463
 -0.414  -0.406  -0.379  -0.369  -0.342  -0.287  -0.261  -0.255

          Ground-State Mulliken Net Atomic Charges

     Atom                 Charge (a.u.)    Spin (a.u.)
  --------------------------------------------------------
      1 C                     0.092216      -0.008869
      2 C                    -0.245846      -0.043931
      3 C                    -0.096691       0.975940
      4 C                    -0.087704       0.040224
      5 C                    -0.094716      -0.045115
      6 N                    -0.325034       0.022045
      7 H                     0.149670      -0.000171
      8 H                     0.133861       0.002850
      9 H                     0.138921      -0.026587
     10 H                     0.146049       0.000872
     11 H                     0.139801       0.003020
     12 C                    -0.096135       0.079419
     13 H                     0.145608       0.000304
  --------------------------------------------------------
  Sum of atomic charges =     0.000000

                    Cartesian Multipole Moments
 -----------------------------------------------------------------
    Charge (ESU x 10^10)
                 0.0000
    Dipole Moment (Debye)
         X      -0.6676      Y      -2.0406      Z       1.0147
       Tot       2.3747
    Quadrupole Moments (Debye-Ang)
        XX     -37.2536     XY      -3.7235     YY     -43.5122
        XZ       1.0872     YZ       0.2715     ZZ     -40.7114

 Total job time:  83.96s(wall), 211.10s(cpu)
        *  Thank you very much for using Q-Chem.  Have a nice day.  *
