 Q-Chem 5.0, Q-Chem, Inc., Pleasanton, CA (2017)
 Q-Chem 5.0.2 for Intel X86 EM64T Linux

User input:
--------------------------------------------------------------
$molecule
0 2
C        1.4001432223    0.3189955108    0.0750271828
C        0.6142342576   -0.9652592310   -0.1471905476
C       -0.6756755822   -0.4551967852   -0.8519755440
C       -1.1049842767    0.1886928164    0.4628590284
C       -0.5168549879    1.0509212248   -0.6612355578
N        0.8459792404    1.4261038092   -0.4286843004
H        2.4076129758    0.3144631196    0.4777578286
H        1.1134874612   -1.9141235349   -0.3307100376
H       -1.2581300536   -0.9539549865   -1.6192299510
H       -2.0922607086    0.3509192552    0.8803946361
H       -1.1613543808    1.7461608699   -1.1885663416
C        0.0953813673   -0.4441497342    1.1399652585
H        0.3219184636   -0.6699159912    2.1739680635
$end

$rem
method                b3lyp
basis                 6-31g(d)
unrestricted          true
symmetry              off
sym_ignore            true
incdft                false
incfock               0
scf_convergence       6
thresh                14
jobtype               sp
scf_guess             read
scf_algorithm         diis
max_scf_cycles        100
stability_analysis    true
max_cis_cycles        100
cis_n_roots           4
$end

--------------------------------------------------------------

             Standard Nuclear Orientation (Angstroms)
    I     Atom           X                Y                Z
 ----------------------------------------------------------------
    1      C       1.4001432223     0.3189955108     0.0750271828
    2      C       0.6142342576    -0.9652592310    -0.1471905476
    3      C      -0.6756755822    -0.4551967852    -0.8519755440
    4      C      -1.1049842767     0.1886928164     0.4628590284
    5      C      -0.5168549879     1.0509212248    -0.6612355578
    6      N       0.8459792404     1.4261038092    -0.4286843004
    7      H       2.4076129758     0.3144631196     0.4777578286
    8      H       1.1134874612    -1.9141235349    -0.3307100376
    9      H      -1.2581300536    -0.9539549865    -1.6192299510
   10      H      -2.0922607086     0.3509192552     0.8803946361
   11      H      -1.1613543808     1.7461608699    -1.1885663416
   12      C       0.0953813673    -0.4441497342     1.1399652585
   13      H       0.3219184636    -0.6699159912     2.1739680635
 ----------------------------------------------------------------

    2    -286.8156658525      1.13E-09 Convergence criterion met
 Total energy in the final basis set = -286.81566585

         TDDFT/TDA Excitation Energies
 ---------------------------------------------------

 Excited state   1: excitation energy (eV) =    2.6657
 Total energy for state  1:                  -286.71770260 au
    <S**2>     :  0.7683
    Trans. Mom.: -0.0194 X   0.3050 Y  -0.1934 Z
    Strength   :     0.0085416962
    S(  1) --> V(  1) amplitude =  0.1703 alpha
    D( 23) --> S(  1) amplitude =  0.2327 beta
    D( 24) --> S(  1) amplitude =  0.9448 beta

 Excited state   2: excitation energy (eV) =    2.9913
 Total energy for state  2:                  -286.70573907 au
    <S**2>     :  0.7911
    Trans. Mom.: -0.0320 X  -0.0951 Y   0.0225 Z
    Strength   :     0.0007754671
    D( 22) --> S(  1) amplitude = -0.1767 beta
    D( 23) --> S(  1) amplitude =  0.9436 beta
    D( 24) --> S(  1) amplitude = -0.2445 beta

 Excited state   3: excitation energy (eV) =    3.9913
 Total energy for state  3:                  -286.66898727 au
    <S**2>     :  0.7888
    Trans. Mom.: -0.1977 X   0.0043 Y  -0.1393 Z
    Strength   :     0.0057183839
    D( 22) --> S(  1) amplitude =  0.9736 beta
    D( 23) --> S(  1) amplitude =  0.1923 beta

 Excited state   4: excitation energy (eV) =    5.1723
 Total energy for state  4:                  -286.62558627 au
    <S**2>     :  0.7918
    Trans. Mom.:  0.0090 X  -0.0260 Y  -0.0594 Z
    Strength   :     0.0005439247
    S(  1) --> V(  1) amplitude = -0.5789 alpha
    D( 21) --> S(  1) amplitude =  0.7858 beta

 ---------------------------------------------------

                    Orbital Energies (a.u.)
 --------------------------------------------------------------

 Alpha MOs
 -- Occupied --
-14.321 -10.219 -10.219 -10.215 -10.211 -10.206 -10.204  -0.979
 -0.843  -0.776  -0.655  -0.594  -0.573  -0.542  -0.530  -0.448
 -0.443  -0.409  -0.404  -0.377  -0.341  -0.283  -0.267  -0.245
 -0.190

 Beta MOs
 -- Occupied --
-14.310 -10.221 -10.216 -10.212 -10.210 -10.205 -10.204  -0.970
 -0.827  -0.771  -0.645  -0.591  -0.568  -0.536  -0.524  -0.445
 -0.437  -0.401  -0.394  -0.368  -0.328  -0.277  -0.253  -0.230

          Ground-State Mulliken Net Atomic Charges

     Atom                 Charge (a.u.)    Spin (a.u.)
  --------------------------------------------------------
      1 C                     0.002556      -0.148907
      2 C                    -0.176612       0.014624
      3 C                    -0.100397       0.086657
      4 C                    -0.137722       0.001091
      5 C                    -0.046306      -0.030302
      6 N                    -0.314225       0.571561
      7 H                     0.148648       0.004078
      8 H                     0.144603       0.011397
      9 H                     0.143663      -0.004675
     10 H                     0.144768      -0.000850
     11 H                     0.147954       0.000550
     12 C                    -0.108927       0.519309
     13 H                     0.151998      -0.024532
  --------------------------------------------------------
  Sum of atomic charges =    -0.000000

                    Cartesian Multipole Moments
 -----------------------------------------------------------------
    Charge (ESU x 10^10)
                -0.0000
    Dipole Moment (Debye)
         X      -1.0147      Y      -2.2582      Z       0.6370
       Tot       2.5563
    Quadrupole Moments (Debye-Ang)
        XX     -37.8905     XY      -4.1023     YY     -43.9185
        XZ       2.3231     YZ       0.5609     ZZ     -38.9805

 Total job time:  92.77s(wall), 79.51s(cpu)
        *  Thank you very much for using Q-Chem.  Have a nice day.  *
