 Q-Chem 5.0, Q-Chem, Inc., Pleasanton, CA (2017)
 Q-Chem 5.0.2 for Intel X86 EM64T Linux

User input:
--------------------------------------------------------------
$molecule
0 2
C        1.3834103499    0.3449444629    0.1272592852
C        0.6198049440   -0.9565704023   -0.1481462352
C       -0.6591403381   -0.4666362367   -0.8792357556
C       -1.0953438149    0.2083338920    0.4703085380
C       -0.5258152349    1.0371934493   -0.6697406658
N        0.8309288842    1.4293298917   -0.4522370656
H        2.4295416845    0.3545141575    0.4225108570
H        1.1400089896   -1.8998724246   -0.2854477485
H       -1.2340558435   -1.0013116192   -1.6323785415
H       -2.0159332370    0.4750974435    0.9820388509
H       -1.1912130922    1.7064678898   -1.2010286497
C        0.1347098512   -0.3995556310    1.1282024796
H        0.1725938556   -0.8382785300    2.1202743690
$end

$rem
method                b3lyp
basis                 6-31g(d)
unrestricted          true
symmetry              off
sym_ignore            true
incdft                false
incfock               0
scf_convergence       8
thresh                14
jobtype               ts
scf_guess             read
scf_algorithm         diis
max_scf_cycles        100
geom_opt_max_cycles   500
geom_opt_dmax         100
geom_opt_tol_gradient 10
geom_opt_hessian      read
$end

--------------------------------------------------------------

    2    -286.8119862396      2.53E-10 Convergence criterion met
 Total energy in the final basis set = -286.81198624
   14    -286.8124413333      2.44E-09 Convergence criterion met
 Total energy in the final basis set = -286.81244133
   14    -286.8129126538      2.20E-09 Convergence criterion met
 Total energy in the final basis set = -286.81291265
   13    -286.8133978814      8.90E-09 Convergence criterion met
 Total energy in the final basis set = -286.81339788
   13    -286.8138532924      6.77E-09 Convergence criterion met
 Total energy in the final basis set = -286.81385329
   12    -286.8142591542      9.19E-09 Convergence criterion met
 Total energy in the final basis set = -286.81425915
   12    -286.8146099704      6.46E-09 Convergence criterion met
 Total energy in the final basis set = -286.81460997
   12    -286.8149061048      4.45E-09 Convergence criterion met
   12    -286.8151498867      3.21E-09 Convergence criterion met
 Total energy in the final basis set = -286.81514989
   12    -286.8153440386      2.74E-09 Convergence criterion met
 Total energy in the final basis set = -286.81534404
   12    -286.8154910280      2.86E-09 Convergence criterion met
 Total energy in the final basis set = -286.81549103
   12    -286.8155928109      3.37E-09 Convergence criterion met
 Total energy in the final basis set = -286.81559281
   12    -286.8156507173      3.98E-09 Convergence criterion met
 Total energy in the final basis set = -286.81565072
   11    -286.8156658424      8.18E-09 Convergence criterion met
 Total energy in the final basis set = -286.81566584

             Standard Nuclear Orientation (Angstroms)
    I     Atom           X                Y                Z
 ----------------------------------------------------------------
    1      C       1.4001432223     0.3189955108     0.0750271828
    2      C       0.6142342576    -0.9652592310    -0.1471905476
    3      C      -0.6756755822    -0.4551967852    -0.8519755440
    4      C      -1.1049842767     0.1886928164     0.4628590284
    5      C      -0.5168549879     1.0509212248    -0.6612355578
    6      N       0.8459792404     1.4261038092    -0.4286843004
    7      H       2.4076129758     0.3144631196     0.4777578286
    8      H       1.1134874612    -1.9141235349    -0.3307100376
    9      H      -1.2581300536    -0.9539549865    -1.6192299510
   10      H      -2.0922607086     0.3509192552     0.8803946361
   11      H      -1.1613543808     1.7461608699    -1.1885663416
   12      C       0.0953813673    -0.4441497342     1.1399652585
   13      H       0.3219184636    -0.6699159912     2.1739680635
 ----------------------------------------------------------------

    9    -286.8156658525      6.64E-09 Convergence criterion met
 Total energy in the final basis set = -286.81566585
 Final energy is   -286.815665852499
 **  OPTIMIZATION CONVERGED  **

                    Orbital Energies (a.u.)
 --------------------------------------------------------------

 Alpha MOs
 -- Occupied --
-14.321 -10.219 -10.219 -10.215 -10.211 -10.206 -10.204  -0.979
 -0.843  -0.776  -0.655  -0.594  -0.573  -0.542  -0.530  -0.448
 -0.443  -0.409  -0.404  -0.377  -0.341  -0.283  -0.267  -0.245
 -0.190

 Beta MOs
 -- Occupied --
-14.310 -10.221 -10.216 -10.212 -10.210 -10.205 -10.204  -0.970
 -0.827  -0.771  -0.645  -0.591  -0.568  -0.536  -0.524  -0.445
 -0.437  -0.401  -0.394  -0.368  -0.328  -0.277  -0.253  -0.230

          Ground-State Mulliken Net Atomic Charges

     Atom                 Charge (a.u.)    Spin (a.u.)
  --------------------------------------------------------
      1 C                     0.002556      -0.148907
      2 C                    -0.176612       0.014623
      3 C                    -0.100397       0.086657
      4 C                    -0.137722       0.001090
      5 C                    -0.046306      -0.030301
      6 N                    -0.314225       0.571560
      7 H                     0.148648       0.004078
      8 H                     0.144603       0.011398
      9 H                     0.143663      -0.004675
     10 H                     0.144768      -0.000850
     11 H                     0.147954       0.000550
     12 C                    -0.108927       0.519310
     13 H                     0.151998      -0.024532
  --------------------------------------------------------
  Sum of atomic charges =    -0.000000

                    Cartesian Multipole Moments
 -----------------------------------------------------------------
    Charge (ESU x 10^10)
                 0.0000
    Dipole Moment (Debye)
         X      -1.0147      Y      -2.2582      Z       0.6370
       Tot       2.5563
    Quadrupole Moments (Debye-Ang)
        XX     -37.8905     XY      -4.1023     YY     -43.9185
        XZ       2.3231     YZ       0.5609     ZZ     -38.9805

 Total job time:  231.55s(wall), 577.14s(cpu)
        *  Thank you very much for using Q-Chem.  Have a nice day.  *
