 Q-Chem 5.0, Q-Chem, Inc., Pleasanton, CA (2017)
 Q-Chem 5.0.2 for Intel X86 EM64T Linux

User input:
--------------------------------------------------------------
$molecule
0 2
C        1.4001432223    0.3189955108    0.0750271828
C        0.6142342576   -0.9652592310   -0.1471905476
C       -0.6756755822   -0.4551967852   -0.8519755440
C       -1.1049842767    0.1886928164    0.4628590284
C       -0.5168549879    1.0509212248   -0.6612355578
N        0.8459792404    1.4261038092   -0.4286843004
H        2.4076129758    0.3144631196    0.4777578286
H        1.1134874612   -1.9141235349   -0.3307100376
H       -1.2581300536   -0.9539549865   -1.6192299510
H       -2.0922607086    0.3509192552    0.8803946361
H       -1.1613543808    1.7461608699   -1.1885663416
C        0.0953813673   -0.4441497342    1.1399652585
H        0.3219184636   -0.6699159912    2.1739680635
$end

$rem
method                b3lyp
basis                 6-31+g(d,p)
unrestricted          true
symmetry              off
sym_ignore            true
incdft                false
incfock               0
scf_convergence       8
thresh                14
jobtype               freq
scf_guess             read
scf_algorithm         diis
max_scf_cycles        100
$end

--------------------------------------------------------------

             Standard Nuclear Orientation (Angstroms)
    I     Atom           X                Y                Z
 ----------------------------------------------------------------
    1      C       1.4001432223     0.3189955108     0.0750271828
    2      C       0.6142342576    -0.9652592310    -0.1471905476
    3      C      -0.6756755822    -0.4551967852    -0.8519755440
    4      C      -1.1049842767     0.1886928164     0.4628590284
    5      C      -0.5168549879     1.0509212248    -0.6612355578
    6      N       0.8459792404     1.4261038092    -0.4286843004
    7      H       2.4076129758     0.3144631196     0.4777578286
    8      H       1.1134874612    -1.9141235349    -0.3307100376
    9      H      -1.2581300536    -0.9539549865    -1.6192299510
   10      H      -2.0922607086     0.3509192552     0.8803946361
   11      H      -1.1613543808     1.7461608699    -1.1885663416
   12      C       0.0953813673    -0.4441497342     1.1399652585
   13      H       0.3219184636    -0.6699159912     2.1739680635
 ----------------------------------------------------------------

    2    -286.8367149608      2.35E-09 Convergence criterion met
 Total energy in the final basis set = -286.83671496

                    Orbital Energies (a.u.)
 --------------------------------------------------------------

 Alpha MOs
 -- Occupied --
-14.336 -10.230 -10.230 -10.225 -10.221 -10.216 -10.214  -0.990
 -0.854  -0.786  -0.664  -0.603  -0.582  -0.550  -0.537  -0.456
 -0.451  -0.418  -0.414  -0.387  -0.350  -0.293  -0.279  -0.256
 -0.202

 Beta MOs
 -- Occupied --
-14.325 -10.232 -10.226 -10.222 -10.220 -10.214 -10.214  -0.981
 -0.838  -0.781  -0.654  -0.601  -0.576  -0.544  -0.531  -0.453
 -0.446  -0.410  -0.403  -0.378  -0.338  -0.287  -0.266  -0.241

          Ground-State Mulliken Net Atomic Charges

     Atom                 Charge (a.u.)    Spin (a.u.)
  --------------------------------------------------------
      1 C                    -0.235557      -0.146924
      2 C                     0.043104      -0.027956
      3 C                    -0.072224       0.098309
      4 C                    -0.022515      -0.034428
      5 C                    -0.278004      -0.017558
      6 N                    -0.112775       0.567384
      7 H                     0.140609       0.003627
      8 H                     0.130876       0.012378
      9 H                     0.130639      -0.004440
     10 H                     0.134738      -0.000624
     11 H                     0.140521       0.000713
     12 C                    -0.140273       0.573204
     13 H                     0.140861      -0.023685
  --------------------------------------------------------
  Sum of atomic charges =    -0.000000

                    Cartesian Multipole Moments
 -----------------------------------------------------------------
    Charge (ESU x 10^10)
                 0.0000
    Dipole Moment (Debye)
         X      -1.1294      Y      -2.4937      Z       0.6435
       Tot       2.8122
    Quadrupole Moments (Debye-Ang)
        XX     -38.8192     XY      -4.6829     YY     -45.4563
        XZ       2.5086     YZ       0.7053     ZZ     -40.0846

 Frequency:      -627.09                 469.43                 564.04
 Force Cnst:      2.0706                 0.4976                 0.5705
 Red. Mass:       8.9370                 3.8322                 3.0434
 IR Intens:        5.567                  3.743                  3.446
 Frequency:       609.46                 708.72                 734.95
 Force Cnst:      0.2891                 2.1515                 0.6255
 Red. Mass:       1.3208                 7.2701                 1.9654
 IR Intens:       15.462                  0.943                 11.670
 Frequency:       762.44                 789.62                 802.98
 Force Cnst:      1.6698                 1.2121                 0.9827
 Red. Mass:       4.8754                 3.2995                 2.5867
 IR Intens:       10.568                 18.393                  6.803
 Frequency:       845.96                 882.04                 906.50
 Force Cnst:      0.8185                 0.6599                 0.7782
 Red. Mass:       1.9412                 1.4397                 1.6073
 IR Intens:        5.392                 26.638                 18.508
 Frequency:       922.83                 969.55                 974.32
 Force Cnst:      0.8140                 0.9169                 0.8891
 Red. Mass:       1.6222                 1.6555                 1.5896
 IR Intens:        0.576                  3.612                  1.956
 Frequency:      1001.39                1046.80                1048.83
 Force Cnst:      0.9962                 0.9717                 1.6634
 Red. Mass:       1.6861                 1.5050                 2.5664
 IR Intens:        1.841                  2.591                  1.829
 Frequency:      1066.05                1139.41                1206.39
 Force Cnst:      1.1526                 1.7475                 1.1553
 Red. Mass:       1.7213                 2.2845                 1.3473
 IR Intens:        6.165                  0.349                  0.309
 Frequency:      1234.45                1246.29                1287.88
 Force Cnst:      2.6748                 1.2513                 1.9954
 Red. Mass:       2.9791                 1.3673                 2.0419
 IR Intens:        7.747                  1.963                 13.723
 Frequency:      1298.45                1337.89                1389.27
 Force Cnst:      2.3305                 2.4729                 2.7056
 Red. Mass:       2.3461                 2.3448                 2.3793
 IR Intens:        3.096                  5.976                  0.539
 Frequency:      3162.53                3198.53                3202.72
 Force Cnst:      6.4365                 6.5802                 6.5926
 Red. Mass:       1.0923                 1.0917                 1.0909
 IR Intens:       13.996                 12.102                  6.835
 Frequency:      3213.07                3215.80                3245.12
 Force Cnst:      6.6584                 6.6736                 6.8049
 Red. Mass:       1.0947                 1.0953                 1.0968
 IR Intens:       24.473                  0.450                  3.980

 STANDARD THERMODYNAMIC QUANTITIES AT   298.15 K  AND     1.00 ATM

   This Molecule has  1 Imaginary Frequencies
   Zero point vibrational energy:       63.593 kcal/mol

   Atom    1 Element C  Has Mass   12.00000
   Atom    2 Element C  Has Mass   12.00000
   Atom    3 Element C  Has Mass   12.00000
   Atom    4 Element C  Has Mass   12.00000
   Atom    5 Element C  Has Mass   12.00000
   Atom    6 Element N  Has Mass   14.00307
   Atom    7 Element H  Has Mass    1.00783
   Atom    8 Element H  Has Mass    1.00783
   Atom    9 Element H  Has Mass    1.00783
   Atom   10 Element H  Has Mass    1.00783
   Atom   11 Element H  Has Mass    1.00783
   Atom   12 Element C  Has Mass   12.00000
   Atom   13 Element H  Has Mass    1.00783
   Molecular Mass:    92.050050 amu
   Principal axes and moments of inertia in amu*Bohr^2:
                             1           2           3
    Eigenvalues --      385.70506   402.10921   534.55759
          X               0.88968    -0.42706    -0.16152
          Y               0.44983     0.75928     0.47026
          Z              -0.07819    -0.49104     0.86762
   Rotational Symmetry Number is   1
   The Molecule is an Asymmetric Top
   Translational Enthalpy:        0.889 kcal/mol
   Rotational Enthalpy:           0.889 kcal/mol
   Vibrational Enthalpy:         64.585 kcal/mol
   gas constant (RT):             0.592 kcal/mol
   Translational Entropy:        39.471  cal/mol.K
   Rotational Entropy:           25.919  cal/mol.K
   Vibrational Entropy:           4.289  cal/mol.K

   Total Enthalpy:               66.955 kcal/mol
   Total Entropy:                69.679  cal/mol.K

 Total job time:  577.75s(wall), 558.30s(cpu)
        *  Thank you very much for using Q-Chem.  Have a nice day.  *
