 Q-Chem 5.0, Q-Chem, Inc., Pleasanton, CA (2017)
 Q-Chem 5.0.2 for Intel X86 EM64T Linux

User input:
--------------------------------------------------------------
$molecule
0 2
C        1.3834103499    0.3449444629    0.1272592852
C        0.6198049440   -0.9565704023   -0.1481462352
C       -0.6591403381   -0.4666362367   -0.8792357556
C       -1.0953438149    0.2083338920    0.4703085380
C       -0.5258152349    1.0371934493   -0.6697406658
N        0.8309288842    1.4293298917   -0.4522370656
H        2.4295416845    0.3545141575    0.4225108570
H        1.1400089896   -1.8998724246   -0.2854477485
H       -1.2340558435   -1.0013116192   -1.6323785415
H       -2.0159332370    0.4750974435    0.9820388509
H       -1.1912130922    1.7064678898   -1.2010286497
C        0.1347098512   -0.3995556310    1.1282024796
H        0.1725938556   -0.8382785300    2.1202743690
$end

$rem
method                b3lyp
basis                 6-31g(d)
unrestricted          true
symmetry              off
sym_ignore            true
incdft                false
incfock               0
scf_convergence       8
thresh                14
jobtype               sp
scf_guess             core
scf_guess_mix         5
scf_algorithm         diis
max_scf_cycles        100
$end

--------------------------------------------------------------

             Standard Nuclear Orientation (Angstroms)
    I     Atom           X                Y                Z
 ----------------------------------------------------------------
    1      C       1.3834103499     0.3449444629     0.1272592852
    2      C       0.6198049440    -0.9565704023    -0.1481462352
    3      C      -0.6591403381    -0.4666362367    -0.8792357556
    4      C      -1.0953438149     0.2083338920     0.4703085380
    5      C      -0.5258152349     1.0371934493    -0.6697406658
    6      N       0.8309288842     1.4293298917    -0.4522370656
    7      H       2.4295416845     0.3545141575     0.4225108570
    8      H       1.1400089896    -1.8998724246    -0.2854477485
    9      H      -1.2340558435    -1.0013116192    -1.6323785415
   10      H      -2.0159332370     0.4750974435     0.9820388509
   11      H      -1.1912130922     1.7064678898    -1.2010286497
   12      C       0.1347098512    -0.3995556310     1.1282024796
   13      H       0.1725938556    -0.8382785300     2.1202743690
 ----------------------------------------------------------------

   22    -286.8119862396      4.00E-09 Convergence criterion met
 Total energy in the final basis set = -286.81198624

                    Orbital Energies (a.u.)
 --------------------------------------------------------------

 Alpha MOs
 -- Occupied --
-14.326 -10.221 -10.215 -10.215 -10.213 -10.206 -10.204  -0.981
 -0.840  -0.778  -0.656  -0.592  -0.573  -0.542  -0.528  -0.452
 -0.432  -0.415  -0.404  -0.375  -0.339  -0.279  -0.271  -0.245
 -0.197

 Beta MOs
 -- Occupied --
-14.312 -10.223 -10.216 -10.211 -10.209 -10.205 -10.204  -0.971
 -0.821  -0.774  -0.648  -0.589  -0.567  -0.538  -0.522  -0.449
 -0.426  -0.401  -0.398  -0.367  -0.326  -0.274  -0.254  -0.232

          Ground-State Mulliken Net Atomic Charges

     Atom                 Charge (a.u.)    Spin (a.u.)
  --------------------------------------------------------
      1 C                    -0.010467      -0.139092
      2 C                    -0.162668       0.045027
      3 C                    -0.102874       0.103354
      4 C                    -0.134038       0.021777
      5 C                    -0.051268      -0.051032
      6 N                    -0.300476       0.668107
      7 H                     0.148997       0.002628
      8 H                     0.146204       0.004687
      9 H                     0.142763      -0.005434
     10 H                     0.143670      -0.001826
     11 H                     0.149382       0.000717
     12 C                    -0.117392       0.364630
     13 H                     0.148166      -0.013543
  --------------------------------------------------------
  Sum of atomic charges =     0.000000

                    Cartesian Multipole Moments
 -----------------------------------------------------------------
    Charge (ESU x 10^10)
                -0.0000
    Dipole Moment (Debye)
         X      -1.0436      Y      -2.1891      Z       0.5614
       Tot       2.4892
    Quadrupole Moments (Debye-Ang)
        XX     -38.0686     XY      -4.0909     YY     -43.4276
        XZ       1.8536     YZ       0.5176     ZZ     -39.2967

 Total job time:  28.48s(wall), 58.66s(cpu)
        *  Thank you very much for using Q-Chem.  Have a nice day.  *
