 Q-Chem 5.0, Q-Chem, Inc., Pleasanton, CA (2017)
 Q-Chem 5.0.2 for Intel X86 EM64T Linux

User input:
--------------------------------------------------------------
$molecule
0 2
C        1.3834103499    0.3449444629    0.1272592852
C        0.6198049440   -0.9565704023   -0.1481462352
C       -0.6591403381   -0.4666362367   -0.8792357556
C       -1.0953438149    0.2083338920    0.4703085380
C       -0.5258152349    1.0371934493   -0.6697406658
N        0.8309288842    1.4293298917   -0.4522370656
H        2.4295416845    0.3545141575    0.4225108570
H        1.1400089896   -1.8998724246   -0.2854477485
H       -1.2340558435   -1.0013116192   -1.6323785415
H       -2.0159332370    0.4750974435    0.9820388509
H       -1.1912130922    1.7064678898   -1.2010286497
C        0.1347098512   -0.3995556310    1.1282024796
H        0.1725938556   -0.8382785300    2.1202743690
$end

$rem
method                b3lyp
basis                 6-31g(d)
unrestricted          true
symmetry              off
sym_ignore            true
incdft                false
incfock               0
scf_convergence       8
thresh                14
jobtype               freq
scf_guess             read
scf_algorithm         diis
max_scf_cycles        100
$end

--------------------------------------------------------------

             Standard Nuclear Orientation (Angstroms)
    I     Atom           X                Y                Z
 ----------------------------------------------------------------
    1      C       1.3834103499     0.3449444629     0.1272592852
    2      C       0.6198049440    -0.9565704023    -0.1481462352
    3      C      -0.6591403381    -0.4666362367    -0.8792357556
    4      C      -1.0953438149     0.2083338920     0.4703085380
    5      C      -0.5258152349     1.0371934493    -0.6697406658
    6      N       0.8309288842     1.4293298917    -0.4522370656
    7      H       2.4295416845     0.3545141575     0.4225108570
    8      H       1.1400089896    -1.8998724246    -0.2854477485
    9      H      -1.2340558435    -1.0013116192    -1.6323785415
   10      H      -2.0159332370     0.4750974435     0.9820388509
   11      H      -1.1912130922     1.7064678898    -1.2010286497
   12      C       0.1347098512    -0.3995556310     1.1282024796
   13      H       0.1725938556    -0.8382785300     2.1202743690
 ----------------------------------------------------------------

    2    -286.8119862395      1.20E-09 Convergence criterion met
 Total energy in the final basis set = -286.81198624

                    Orbital Energies (a.u.)
 --------------------------------------------------------------

 Alpha MOs
 -- Occupied --
-14.326 -10.221 -10.215 -10.215 -10.213 -10.206 -10.204  -0.981
 -0.840  -0.778  -0.656  -0.592  -0.573  -0.542  -0.528  -0.452
 -0.432  -0.415  -0.404  -0.375  -0.339  -0.279  -0.271  -0.245
 -0.197

 Beta MOs
 -- Occupied --
-14.312 -10.223 -10.216 -10.211 -10.209 -10.205 -10.204  -0.971
 -0.821  -0.774  -0.648  -0.589  -0.567  -0.538  -0.522  -0.449
 -0.426  -0.401  -0.398  -0.367  -0.326  -0.274  -0.254  -0.232

          Ground-State Mulliken Net Atomic Charges

     Atom                 Charge (a.u.)    Spin (a.u.)
  --------------------------------------------------------
      1 C                    -0.010467      -0.139093
      2 C                    -0.162668       0.045027
      3 C                    -0.102874       0.103355
      4 C                    -0.134038       0.021776
      5 C                    -0.051268      -0.051031
      6 N                    -0.300476       0.668108
      7 H                     0.148997       0.002628
      8 H                     0.146204       0.004687
      9 H                     0.142763      -0.005434
     10 H                     0.143670      -0.001826
     11 H                     0.149382       0.000717
     12 C                    -0.117392       0.364631
     13 H                     0.148166      -0.013544
  --------------------------------------------------------
  Sum of atomic charges =     0.000000

                    Cartesian Multipole Moments
 -----------------------------------------------------------------
    Charge (ESU x 10^10)
                 0.0000
    Dipole Moment (Debye)
         X      -1.0436      Y      -2.1891      Z       0.5614
       Tot       2.4892
    Quadrupole Moments (Debye-Ang)
        XX     -38.0686     XY      -4.0909     YY     -43.4276
        XZ       1.8536     YZ       0.5176     ZZ     -39.2967

 Frequency:      -560.08                 469.13                 570.89
 Force Cnst:      1.3445                 0.8167                 0.5588
 Red. Mass:       7.2745                 6.2986                 2.9100
 IR Intens:       12.091                  3.805                  1.449
 Frequency:       661.30                 710.54                 738.36
 Force Cnst:      0.6400                 1.0562                 0.6440
 Red. Mass:       2.4838                 3.5508                 2.0049
 IR Intens:        5.674                  4.149                  6.212
 Frequency:       762.54                 799.81                 817.07
 Force Cnst:      1.1625                 1.2732                 0.7660
 Red. Mass:       3.3933                 3.3780                 1.9475
 IR Intens:        9.578                 15.972                 11.650
 Frequency:       849.00                 883.12                 917.50
 Force Cnst:      0.9085                 0.7323                 0.5937
 Red. Mass:       2.1392                 1.5936                 1.1970
 IR Intens:        1.861                 28.213                  5.317
 Frequency:       929.02                 967.53                 981.60
 Force Cnst:      0.8373                 0.9089                 0.9762
 Red. Mass:       1.6466                 1.6479                 1.7195
 IR Intens:        0.808                  4.930                  1.612
 Frequency:      1002.32                1028.13                1050.73
 Force Cnst:      0.9184                 0.9729                 1.8348
 Red. Mass:       1.5515                 1.5622                 2.8207
 IR Intens:        2.098                  9.469                  1.794
 Frequency:      1076.46                1132.18                1210.17
 Force Cnst:      1.1571                 1.7475                 1.1527
 Red. Mass:       1.6948                 2.3139                 1.3358
 IR Intens:        0.591                  0.629                  0.112
 Frequency:      1243.49                1255.03                1279.66
 Force Cnst:      1.6788                 1.9008                 2.5884
 Red. Mass:       1.8428                 2.0482                 2.6828
 IR Intens:        2.071                  7.313                  7.356
 Frequency:      1304.07                1341.72                1377.27
 Force Cnst:      1.9361                 2.4979                 2.2110
 Red. Mass:       1.9323                 2.3551                 1.9784
 IR Intens:        5.716                  6.586                  0.424
 Frequency:      3182.16                3197.17                3198.92
 Force Cnst:      6.5109                 6.5778                 6.5873
 Red. Mass:       1.0913                 1.0922                 1.0926
 IR Intens:        7.373                 16.544                 10.228
 Frequency:      3206.03                3221.18                3235.48
 Force Cnst:      6.6201                 6.7079                 6.7462
 Red. Mass:       1.0932                 1.0973                 1.0938
 IR Intens:       14.881                 12.178                 15.333

 STANDARD THERMODYNAMIC QUANTITIES AT   298.15 K  AND     1.00 ATM

   This Molecule has  1 Imaginary Frequencies
   Zero point vibrational energy:       63.758 kcal/mol

   Atom    1 Element C  Has Mass   12.00000
   Atom    2 Element C  Has Mass   12.00000
   Atom    3 Element C  Has Mass   12.00000
   Atom    4 Element C  Has Mass   12.00000
   Atom    5 Element C  Has Mass   12.00000
   Atom    6 Element N  Has Mass   14.00307
   Atom    7 Element H  Has Mass    1.00783
   Atom    8 Element H  Has Mass    1.00783
   Atom    9 Element H  Has Mass    1.00783
   Atom   10 Element H  Has Mass    1.00783
   Atom   11 Element H  Has Mass    1.00783
   Atom   12 Element C  Has Mass   12.00000
   Atom   13 Element H  Has Mass    1.00783
   Molecular Mass:    92.050050 amu
   Principal axes and moments of inertia in amu*Bohr^2:
                             1           2           3
    Eigenvalues --      388.07071   399.38349   527.59273
          X               0.92952    -0.31992    -0.18341
          Y               0.36875     0.80278     0.46858
          Z              -0.00268    -0.50319     0.86417
   Rotational Symmetry Number is   1
   The Molecule is an Asymmetric Top
   Translational Enthalpy:        0.889 kcal/mol
   Rotational Enthalpy:           0.889 kcal/mol
   Vibrational Enthalpy:         64.724 kcal/mol
   gas constant (RT):             0.592 kcal/mol
   Translational Entropy:        39.471  cal/mol.K
   Rotational Entropy:           25.906  cal/mol.K
   Vibrational Entropy:           4.161  cal/mol.K

   Total Enthalpy:               67.094 kcal/mol
   Total Entropy:                69.538  cal/mol.K

 Total job time:  266.52s(wall), 258.21s(cpu)
        *  Thank you very much for using Q-Chem.  Have a nice day.  *
