 Q-Chem 5.0, Q-Chem, Inc., Pleasanton, CA (2017)
 Q-Chem 5.0.2 for Intel X86 EM64T Linux

User input:
--------------------------------------------------------------
$molecule
0 2
C        1.4013503399    0.3172338705    0.0795560666
C        0.6147584234   -0.9658931029   -0.1480172801
C       -0.6756299217   -0.4556358950   -0.8536519498
C       -1.1053130040    0.1905952288    0.4633145275
C       -0.5200503082    1.0513429833   -0.6623080362
N        0.8439228240    1.4225982673   -0.4298681842
H        2.4090537342    0.3144509717    0.4790876957
H        1.1142896254   -1.9136827708   -0.3314648101
H       -1.2575595411   -0.9537012497   -1.6208076668
H       -2.0913171172    0.3521581167    0.8823914992
H       -1.1628450577    1.7469790300   -1.1892258181
C        0.0967980247   -0.4429620852    1.1398512642
H        0.3220389766   -0.6698270218    2.1735224100
$end

$rem
method                b3lyp
basis                 6-31+g(d,p)
unrestricted          true
symmetry              off
sym_ignore            true
incdft                false
incfock               0
scf_convergence       8
thresh                14
jobtype               freq
scf_guess             read
scf_algorithm         diis
max_scf_cycles        100
$end

--------------------------------------------------------------

             Standard Nuclear Orientation (Angstroms)
    I     Atom           X                Y                Z
 ----------------------------------------------------------------
    1      C       1.4013503399     0.3172338705     0.0795560666
    2      C       0.6147584234    -0.9658931029    -0.1480172801
    3      C      -0.6756299217    -0.4556358950    -0.8536519498
    4      C      -1.1053130040     0.1905952288     0.4633145275
    5      C      -0.5200503082     1.0513429833    -0.6623080362
    6      N       0.8439228240     1.4225982673    -0.4298681842
    7      H       2.4090537342     0.3144509717     0.4790876957
    8      H       1.1142896254    -1.9136827708    -0.3314648101
    9      H      -1.2575595411    -0.9537012497    -1.6208076668
   10      H      -2.0913171172     0.3521581167     0.8823914992
   11      H      -1.1628450577     1.7469790300    -1.1892258181
   12      C       0.0967980247    -0.4429620852     1.1398512642
   13      H       0.3220389766    -0.6698270218     2.1735224100
 ----------------------------------------------------------------

    2    -286.8367415059      3.92E-10 Convergence criterion met
 Total energy in the final basis set = -286.83674151

                    Orbital Energies (a.u.)
 --------------------------------------------------------------

 Alpha MOs
 -- Occupied --
-14.336 -10.230 -10.230 -10.225 -10.221 -10.216 -10.214  -0.990
 -0.853  -0.786  -0.664  -0.603  -0.582  -0.549  -0.537  -0.456
 -0.451  -0.418  -0.414  -0.387  -0.350  -0.293  -0.278  -0.256
 -0.202

 Beta MOs
 -- Occupied --
-14.325 -10.232 -10.226 -10.222 -10.220 -10.215 -10.214  -0.980
 -0.837  -0.781  -0.654  -0.601  -0.577  -0.543  -0.532  -0.453
 -0.445  -0.411  -0.403  -0.378  -0.338  -0.287  -0.265  -0.241

          Ground-State Mulliken Net Atomic Charges

     Atom                 Charge (a.u.)    Spin (a.u.)
  --------------------------------------------------------
      1 C                    -0.238320      -0.147449
      2 C                     0.043510      -0.025527
      3 C                    -0.073244       0.098974
      4 C                    -0.023216      -0.032117
      5 C                    -0.276691      -0.019427
      6 N                    -0.111546       0.576604
      7 H                     0.141043       0.003595
      8 H                     0.130683       0.012039
      9 H                     0.130552      -0.004502
     10 H                     0.134621      -0.000689
     11 H                     0.140817       0.000737
     12 C                    -0.138886       0.560922
     13 H                     0.140679      -0.023160
  --------------------------------------------------------
  Sum of atomic charges =     0.000000

                    Cartesian Multipole Moments
 -----------------------------------------------------------------
    Charge (ESU x 10^10)
                 0.0000
    Dipole Moment (Debye)
         X      -1.1275      Y      -2.4753      Z       0.6412
       Tot       2.7946
    Quadrupole Moments (Debye-Ang)
        XX     -38.7878     XY      -4.6978     YY     -45.4493
        XZ       2.5200     YZ       0.7102     ZZ     -40.0848

 Frequency:      -625.35                 469.00                 564.01
 Force Cnst:      2.0665                 0.5103                 0.5648
 Red. Mass:       8.9686                 3.9376                 3.0136
 IR Intens:        5.778                  3.682                  3.348
 Frequency:       610.96                 708.64                 731.01
 Force Cnst:      0.2891                 2.1260                 0.6123
 Red. Mass:       1.3147                 7.1856                 1.9449
 IR Intens:       15.146                  0.914                 11.970
 Frequency:       761.87                 788.71                 801.51
 Force Cnst:      1.6789                 1.1504                 1.0030
 Red. Mass:       4.9093                 3.1387                 2.6499
 IR Intens:       10.319                 19.106                  6.567
 Frequency:       843.54                 878.09                 903.02
 Force Cnst:      0.7902                 0.6751                 0.7574
 Red. Mass:       1.8849                 1.4860                 1.5766
 IR Intens:        6.027                 26.993                 18.071
 Frequency:       921.01                 968.19                 972.38
 Force Cnst:      0.8135                 0.9188                 0.8949
 Red. Mass:       1.6276                 1.6636                 1.6065
 IR Intens:        0.489                  3.677                  1.744
 Frequency:       998.89                1043.10                1045.63
 Force Cnst:      0.9917                 0.9169                 1.8448
 Red. Mass:       1.6869                 1.4303                 2.8637
 IR Intens:        1.816                  2.532                  1.992
 Frequency:      1061.91                1135.58                1204.30
 Force Cnst:      1.1424                 1.7337                 1.1499
 Red. Mass:       1.7194                 2.2818                 1.3457
 IR Intens:        5.838                  0.274                  0.302
 Frequency:      1232.82                1241.98                1284.79
 Force Cnst:      2.6858                 1.2420                 2.0464
 Red. Mass:       2.9994                 1.3666                 2.1041
 IR Intens:        7.656                  1.996                 13.556
 Frequency:      1294.91                1335.03                1383.03
 Force Cnst:      2.2859                 2.4646                 2.6246
 Red. Mass:       2.3138                 2.3470                 2.3289
 IR Intens:        3.032                  6.115                  0.451
 Frequency:      3170.32                3205.30                3210.77
 Force Cnst:      6.4679                 6.6077                 6.6280
 Red. Mass:       1.0922                 1.0916                 1.0912
 IR Intens:       13.924                 12.175                  5.269
 Frequency:      3220.83                3225.13                3248.55
 Force Cnst:      6.6956                 6.7041                 6.8201
 Red. Mass:       1.0955                 1.0939                 1.0969
 IR Intens:       22.993                  1.809                  3.915

 STANDARD THERMODYNAMIC QUANTITIES AT   298.15 K  AND     1.00 ATM

   This Molecule has  1 Imaginary Frequencies
   Zero point vibrational energy:       63.566 kcal/mol

   Atom    1 Element C  Has Mass   12.00000
   Atom    2 Element C  Has Mass   12.00000
   Atom    3 Element C  Has Mass   12.00000
   Atom    4 Element C  Has Mass   12.00000
   Atom    5 Element C  Has Mass   12.00000
   Atom    6 Element N  Has Mass   14.00307
   Atom    7 Element H  Has Mass    1.00783
   Atom    8 Element H  Has Mass    1.00783
   Atom    9 Element H  Has Mass    1.00783
   Atom   10 Element H  Has Mass    1.00783
   Atom   11 Element H  Has Mass    1.00783
   Atom   12 Element C  Has Mass   12.00000
   Atom   13 Element H  Has Mass    1.00783
   Molecular Mass:    92.050050 amu
   Principal axes and moments of inertia in amu*Bohr^2:
                             1           2           3
    Eigenvalues --      386.32203   401.90857   534.42075
          X               0.90967    -0.38239    -0.16211
          Y               0.41187     0.78025     0.47071
          Z              -0.05350    -0.49496     0.86727
   Rotational Symmetry Number is   1
   The Molecule is an Asymmetric Top
   Translational Enthalpy:        0.889 kcal/mol
   Rotational Enthalpy:           0.889 kcal/mol
   Vibrational Enthalpy:         64.563 kcal/mol
   gas constant (RT):             0.592 kcal/mol
   Translational Entropy:        39.471  cal/mol.K
   Rotational Entropy:           25.920  cal/mol.K
   Vibrational Entropy:           4.311  cal/mol.K

   Total Enthalpy:               66.933 kcal/mol
   Total Entropy:                69.702  cal/mol.K

 Total job time:  571.65s(wall), 557.25s(cpu)
        *  Thank you very much for using Q-Chem.  Have a nice day.  *
