 Q-Chem 5.0, Q-Chem, Inc., Pleasanton, CA (2017)
 Q-Chem 5.0.2 for Intel X86 EM64T Linux

User input:
--------------------------------------------------------------
$molecule
0 2
C        1.4001432223    0.3189955108    0.0750271828
C        0.6142342576   -0.9652592310   -0.1471905476
C       -0.6756755822   -0.4551967852   -0.8519755440
C       -1.1049842767    0.1886928164    0.4628590284
C       -0.5168549879    1.0509212248   -0.6612355578
N        0.8459792404    1.4261038092   -0.4286843004
H        2.4076129758    0.3144631196    0.4777578286
H        1.1134874612   -1.9141235349   -0.3307100376
H       -1.2581300536   -0.9539549865   -1.6192299510
H       -2.0922607086    0.3509192552    0.8803946361
H       -1.1613543808    1.7461608699   -1.1885663416
C        0.0953813673   -0.4441497342    1.1399652585
H        0.3219184636   -0.6699159912    2.1739680635
$end

$rem
method                b3lyp
basis                 6-31+g(d,p)
unrestricted          true
symmetry              off
sym_ignore            true
incdft                false
incfock               0
scf_convergence       8
thresh                14
jobtype               ts
scf_guess             read
scf_algorithm         diis
max_scf_cycles        100
geom_opt_max_cycles   500
geom_opt_dmax         100
geom_opt_tol_gradient 10
geom_opt_hessian      read
$end

--------------------------------------------------------------

    2    -286.8367149608      6.87E-10 Convergence criterion met
 Total energy in the final basis set = -286.83671496
   12    -286.8367415037      4.88E-09 Convergence criterion met
 Total energy in the final basis set = -286.83674150

             Standard Nuclear Orientation (Angstroms)
    I     Atom           X                Y                Z
 ----------------------------------------------------------------
    1      C       1.4013503399     0.3172338705     0.0795560666
    2      C       0.6147584234    -0.9658931029    -0.1480172801
    3      C      -0.6756299217    -0.4556358950    -0.8536519498
    4      C      -1.1053130040     0.1905952288     0.4633145275
    5      C      -0.5200503082     1.0513429833    -0.6623080362
    6      N       0.8439228240     1.4225982673    -0.4298681842
    7      H       2.4090537342     0.3144509717     0.4790876957
    8      H       1.1142896254    -1.9136827708    -0.3314648101
    9      H      -1.2575595411    -0.9537012497    -1.6208076668
   10      H      -2.0913171172     0.3521581167     0.8823914992
   11      H      -1.1628450577     1.7469790300    -1.1892258181
   12      C       0.0967980247    -0.4429620852     1.1398512642
   13      H       0.3220389766    -0.6698270218     2.1735224100
 ----------------------------------------------------------------

    8    -286.8367415060      3.39E-09 Convergence criterion met
 Total energy in the final basis set = -286.83674151
 Final energy is   -286.836741505993
 **  OPTIMIZATION CONVERGED  **

                    Orbital Energies (a.u.)
 --------------------------------------------------------------

 Alpha MOs
 -- Occupied --
-14.336 -10.230 -10.230 -10.225 -10.221 -10.216 -10.214  -0.990
 -0.853  -0.786  -0.664  -0.603  -0.582  -0.549  -0.537  -0.456
 -0.451  -0.418  -0.414  -0.387  -0.350  -0.293  -0.278  -0.256
 -0.202

 Beta MOs
 -- Occupied --
-14.325 -10.232 -10.226 -10.222 -10.220 -10.215 -10.214  -0.980
 -0.837  -0.781  -0.654  -0.601  -0.577  -0.543  -0.532  -0.453
 -0.445  -0.411  -0.403  -0.378  -0.338  -0.287  -0.265  -0.241

          Ground-State Mulliken Net Atomic Charges

     Atom                 Charge (a.u.)    Spin (a.u.)
  --------------------------------------------------------
      1 C                    -0.238320      -0.147449
      2 C                     0.043510      -0.025527
      3 C                    -0.073244       0.098974
      4 C                    -0.023216      -0.032117
      5 C                    -0.276691      -0.019427
      6 N                    -0.111546       0.576604
      7 H                     0.141043       0.003595
      8 H                     0.130683       0.012039
      9 H                     0.130552      -0.004502
     10 H                     0.134621      -0.000689
     11 H                     0.140817       0.000737
     12 C                    -0.138886       0.560923
     13 H                     0.140679      -0.023161
  --------------------------------------------------------
  Sum of atomic charges =     0.000000

                    Cartesian Multipole Moments
 -----------------------------------------------------------------
    Charge (ESU x 10^10)
                 0.0000
    Dipole Moment (Debye)
         X      -1.1275      Y      -2.4753      Z       0.6412
       Tot       2.7946
    Quadrupole Moments (Debye-Ang)
        XX     -38.7878     XY      -4.6978     YY     -45.4493
        XZ       2.5200     YZ       0.7102     ZZ     -40.0848

 Total job time:  60.62s(wall), 170.41s(cpu)
        *  Thank you very much for using Q-Chem.  Have a nice day.  *
