 Q-Chem 5.0, Q-Chem, Inc., Pleasanton, CA (2017)
 Q-Chem 5.0.2 for Intel X86 EM64T Linux

User input:
--------------------------------------------------------------
$molecule
0 2
C        1.5759077523    0.3862849912   -0.3525875869
C        0.7980349586   -0.8453617488   -0.0272021465
C       -0.5583040882   -0.6281277579   -0.6147900844
C       -0.8363400503    0.7827306019    0.9489513689
C       -0.5519123186    0.9466883558   -0.5497012374
N        0.8572612321    1.3904137537   -0.6922082380
H        2.6604774503    0.4587931891   -0.2783219033
H        1.2467431312   -1.8337616816   -0.0000151575
H       -1.1139007630   -1.2919700177   -1.2708381960
H       -1.7143076626    1.1622167488    1.4593674073
H       -1.2387551793    1.5311178208   -1.1616733598
C       -0.4355064846   -0.6373006961    0.9168054089
H       -0.6893979780   -1.4217235593    1.6222137245
$end

$rem
method                b3lyp
basis                 6-31g(d)
unrestricted          true
symmetry              off
sym_ignore            true
incdft                false
incfock               0
scf_convergence       8
thresh                14
jobtype               opt
scf_guess             read
scf_algorithm         diis
max_scf_cycles        100
geom_opt_tol_gradient 600
geom_opt_tol_displacement 2400
geom_opt_tol_energy   200
geom_opt_max_cycles   100
$end

--------------------------------------------------------------

    2    -286.8364768384      1.66E-09 Convergence criterion met
 Total energy in the final basis set = -286.83647684
   10    -286.8364791119      2.63E-09 Convergence criterion met
 Total energy in the final basis set = -286.83647911

             Standard Nuclear Orientation (Angstroms)
    I     Atom           X                Y                Z
 ----------------------------------------------------------------
    1      C       1.5750872131     0.3862482832    -0.3515476492
    2      C       0.7978069000    -0.8455191156    -0.0271311455
    3      C      -0.5584577470    -0.6277534081    -0.6147913502
    4      C      -0.8371341549     0.7822483096     0.9477508553
    5      C      -0.5512130558     0.9466785856    -0.5502043817
    6      N       0.8574351240     1.3903867389    -0.6920974715
    7      H       2.6596048742     0.4591000899    -0.2779690773
    8      H       1.2479513619    -1.8332114773    -0.0010278731
    9      H      -1.1144784918    -1.2927740343    -1.2694409318
   10      H      -1.7131267645     1.1632204425     1.4603330808
   11      H      -1.2380079187     1.5311259270    -1.1621197495
   12      C      -0.4362346562    -0.6374194591     0.9165716921
   13      H      -0.6892326845    -1.4223308824     1.6216740014
 ----------------------------------------------------------------

    9    -286.8364799679      8.05E-09 Convergence criterion met
 Total energy in the final basis set = -286.83647997
 Final energy is   -286.836479967851
 **  OPTIMIZATION CONVERGED  **

                    Orbital Energies (a.u.)
 --------------------------------------------------------------

 Alpha MOs
 -- Occupied --
-14.317 -10.220 -10.220 -10.215 -10.212 -10.211 -10.194  -0.964
 -0.858  -0.746  -0.657  -0.608  -0.574  -0.540  -0.512  -0.463
 -0.429  -0.413  -0.388  -0.366  -0.329  -0.315  -0.266  -0.256
 -0.174

 Beta MOs
 -- Occupied --
-14.317 -10.221 -10.220 -10.216 -10.211 -10.210 -10.181  -0.961
 -0.854  -0.737  -0.646  -0.602  -0.571  -0.538  -0.501  -0.461
 -0.425  -0.406  -0.384  -0.362  -0.317  -0.303  -0.263  -0.254

          Ground-State Mulliken Net Atomic Charges

     Atom                 Charge (a.u.)    Spin (a.u.)
  --------------------------------------------------------
      1 C                     0.096719       0.006733
      2 C                    -0.192733       0.036935
      3 C                    -0.106603       0.107571
      4 C                    -0.071153       0.952546
      5 C                    -0.099647      -0.043527
      6 N                    -0.337361       0.012644
      7 H                     0.143740       0.003958
      8 H                     0.148720       0.001435
      9 H                     0.149519       0.008551
     10 H                     0.139524      -0.039538
     11 H                     0.141816       0.005465
     12 C                    -0.162145      -0.053149
     13 H                     0.149604       0.000376
  --------------------------------------------------------
  Sum of atomic charges =    -0.000000

                    Cartesian Multipole Moments
 -----------------------------------------------------------------
    Charge (ESU x 10^10)
                -0.0000
    Dipole Moment (Debye)
         X      -0.9315      Y      -2.6588      Z       0.3125
       Tot       2.8346
    Quadrupole Moments (Debye-Ang)
        XX     -37.3029     XY      -3.2019     YY     -42.7859
        XZ       0.7469     YZ       0.7439     ZZ     -41.1766

 Total job time:  26.11s(wall), 78.95s(cpu)
        *  Thank you very much for using Q-Chem.  Have a nice day.  *
