 Q-Chem 5.0, Q-Chem, Inc., Pleasanton, CA (2017)
 Q-Chem 5.0.2 for Intel X86 EM64T Linux

User input:
--------------------------------------------------------------
$molecule
0 2
C        1.7130215860    0.1670611838   -0.5032386452
C       -0.1457353605   -1.3324510280    0.1271661948
C       -1.4595308609   -1.1904498549    0.4959694350
C       -1.7522403587    0.2082901400    0.4923175028
C       -0.6074129166    0.8703438361    0.1221443696
N        0.3817456371   -0.0708565300   -0.1040121945
H        2.2842050677   -0.7551109763   -0.6090495923
H        0.4712364460   -2.2113997254    0.0046424563
H       -2.1402562938   -1.9955745949    0.7389927412
H       -2.6992450123    0.6710115068    0.7357928020
H       -0.4039078567    1.9228802981   -0.0047322992
C        2.2844853671    1.3288984671   -0.7431412085
H        2.0736345555    2.3873572776   -0.7528515620
$end

$rem
method                b3lyp
basis                 6-31g(d)
unrestricted          true
symmetry              off
sym_ignore            true
incdft                false
incfock               0
scf_convergence       8
thresh                14
jobtype               opt
scf_guess             read
scf_algorithm         diis
max_scf_cycles        100
geom_opt_tol_gradient 600
geom_opt_tol_displacement 2400
geom_opt_tol_energy   200
geom_opt_max_cycles   100
$end

--------------------------------------------------------------

    2    -286.8707854440      1.49E-09 Convergence criterion met
 Total energy in the final basis set = -286.87078544

             Standard Nuclear Orientation (Angstroms)
    I     Atom           X                Y                Z
 ----------------------------------------------------------------
    1      C       1.7127976320     0.1668763454    -0.5037627914
    2      C      -0.1458216194    -1.3328588413     0.1259869064
    3      C      -1.4595071665    -1.1905668643     0.4953649640
    4      C      -1.7523554172     0.2083097789     0.4917537594
    5      C      -0.6076117756     0.8699029048     0.1209078169
    6      N       0.3815465053    -0.0713692554    -0.1048603615
    7      H       2.2839493310    -0.7549891381    -0.6079381794
    8      H       0.4713714605    -2.2115593576     0.0039879564
    9      H      -2.1390949794    -1.9952120431     0.7413822501
   10      H      -2.6985731090     0.6723815243     0.7359858699
   11      H      -0.4037975922     1.9227223181    -0.0047665639
   12      C       2.2841553628     1.3291216527    -0.7426541852
   13      H       2.0729413675     2.3872409757    -0.7513874418
 ----------------------------------------------------------------

   11    -286.8707869878      5.80E-09 Convergence criterion met
 Total energy in the final basis set = -286.87078699
 Final energy is   -286.870786987828
 **  OPTIMIZATION CONVERGED  **

                    Orbital Energies (a.u.)
 --------------------------------------------------------------

 Alpha MOs
 -- Occupied --
-14.394 -10.241 -10.214 -10.206 -10.204 -10.173 -10.172  -0.989
 -0.817  -0.737  -0.722  -0.618  -0.574  -0.547  -0.533  -0.459
 -0.436  -0.425  -0.415  -0.386  -0.376  -0.304  -0.255  -0.226
 -0.213

 Beta MOs
 -- Occupied --
-14.393 -10.243 -10.206 -10.204 -10.199 -10.173 -10.172  -0.987
 -0.812  -0.726  -0.718  -0.605  -0.571  -0.545  -0.524  -0.452
 -0.432  -0.425  -0.413  -0.385  -0.375  -0.301  -0.217  -0.213

          Ground-State Mulliken Net Atomic Charges

     Atom                 Charge (a.u.)    Spin (a.u.)
  --------------------------------------------------------
      1 C                     0.045947      -0.142988
      2 C                     0.029380       0.001757
      3 C                    -0.192820      -0.004848
      4 C                    -0.186086      -0.008489
      5 C                     0.035685       0.000803
      6 N                    -0.403114       0.042115
      7 H                     0.163418       0.034828
      8 H                     0.147006       0.000213
      9 H                     0.129516       0.001770
     10 H                     0.129540       0.001031
     11 H                     0.145440       0.001084
     12 C                    -0.213779       1.079648
     13 H                     0.169865      -0.006925
  --------------------------------------------------------
  Sum of atomic charges =     0.000000

                    Cartesian Multipole Moments
 -----------------------------------------------------------------
    Charge (ESU x 10^10)
                 0.0000
    Dipole Moment (Debye)
         X       0.4149      Y       0.1127      Z      -0.1272
       Tot       0.4483
    Quadrupole Moments (Debye-Ang)
        XX     -40.1365     XY      -1.2164     YY     -34.6728
        XZ      -1.2881     YZ      -0.3018     ZZ     -44.4771

 Total job time:  13.34s(wall), 47.66s(cpu)
        *  Thank you very much for using Q-Chem.  Have a nice day.  *
