 Q-Chem 5.0, Q-Chem, Inc., Pleasanton, CA (2017)
 Q-Chem 5.0.2 for Intel X86 EM64T Linux

User input:
--------------------------------------------------------------
$molecule
0 2
C        1.3124298484   -0.0975946439    0.0436157441
C        0.4498855437   -1.2273034426    0.4519224280
C       -0.8926964123   -1.1033291819    0.4848436928
C       -1.5382567658    0.1827420806    0.2616387570
C       -0.8211695858    1.2682934622   -0.0838731046
N        0.5722795659    1.2083535336   -0.3343067327
H        2.2232983203    0.0643887170    0.6254488622
H        0.9378922942   -2.1508412213    0.7558459933
H       -1.5110716912   -1.9466871404    0.7809235959
H       -2.5984363969    0.2871612308    0.4746464774
H       -1.2414452168    2.2700125292   -0.1119807278
C        1.1871675708    0.4342154903   -1.3192912543
H        1.9201229259    0.8105885861   -2.0294337316
$end

$rem
method                b3lyp
basis                 6-31g(d)
unrestricted          true
symmetry              off
sym_ignore            true
incdft                false
incfock               0
scf_convergence       8
thresh                14
jobtype               opt
scf_guess             read
scf_algorithm         diis
max_scf_cycles        100
geom_opt_tol_gradient 600
geom_opt_tol_displacement 2400
geom_opt_tol_energy   200
geom_opt_max_cycles   100
$end

--------------------------------------------------------------

    2    -286.8405101568      1.58E-09 Convergence criterion met
 Total energy in the final basis set = -286.84051016

             Standard Nuclear Orientation (Angstroms)
    I     Atom           X                Y                Z
 ----------------------------------------------------------------
    1      C       1.3127278055    -0.0974939142     0.0432875592
    2      C       0.4496354391    -1.2278186725     0.4506854457
    3      C      -0.8931252084    -1.1032439331     0.4861924799
    4      C      -1.5384831692     0.1828850303     0.2615931445
    5      C      -0.8214239650     1.2682637203    -0.0842163470
    6      N       0.5725036434     1.2084568798    -0.3340875443
    7      H       2.2245403002     0.0628989407     0.6241660192
    8      H       0.9374890922    -2.1509261747     0.7558492215
    9      H      -1.5110121317    -1.9467712980     0.7825776673
   10      H      -2.5987414415     0.2871947582     0.4741855050
   11      H      -1.2422730051     2.2697192280    -0.1130971628
   12      C       1.1873485722     0.4348152179    -1.3190617434
   13      H       1.9208140688     0.8120202172    -2.0280742450
 ----------------------------------------------------------------

   11    -286.8405124350      3.80E-09 Convergence criterion met
 Total energy in the final basis set = -286.84051244
 Final energy is   -286.840512435049
 **  OPTIMIZATION CONVERGED  **

                    Orbital Energies (a.u.)
 --------------------------------------------------------------

 Alpha MOs
 -- Occupied --
-14.358 -10.230 -10.222 -10.220 -10.195 -10.193 -10.189  -0.983
 -0.807  -0.773  -0.662  -0.637  -0.570  -0.520  -0.493  -0.477
 -0.451  -0.424  -0.389  -0.368  -0.354  -0.308  -0.277  -0.223
 -0.188

 Beta MOs
 -- Occupied --
-14.355 -10.230 -10.220 -10.209 -10.195 -10.193 -10.189  -0.974
 -0.805  -0.770  -0.654  -0.636  -0.555  -0.515  -0.487  -0.474
 -0.442  -0.419  -0.384  -0.364  -0.351  -0.297  -0.270  -0.206

          Ground-State Mulliken Net Atomic Charges

     Atom                 Charge (a.u.)    Spin (a.u.)
  --------------------------------------------------------
      1 C                    -0.077101      -0.036848
      2 C                    -0.099266       0.029069
      3 C                    -0.135047      -0.010445
      4 C                    -0.123422       0.014364
      5 C                     0.023332       0.011497
      6 N                    -0.392154       0.120240
      7 H                     0.152409       0.004051
      8 H                     0.137721      -0.001565
      9 H                     0.133301       0.000591
     10 H                     0.133341       0.003113
     11 H                     0.148778      -0.000923
     12 C                    -0.054746       0.860560
     13 H                     0.152854       0.006298
  --------------------------------------------------------
  Sum of atomic charges =    -0.000000

                    Cartesian Multipole Moments
 -----------------------------------------------------------------
    Charge (ESU x 10^10)
                -0.0000
    Dipole Moment (Debye)
         X      -0.0926      Y      -0.6403      Z       0.4618
       Tot       0.7949
    Quadrupole Moments (Debye-Ang)
        XX     -36.1305     XY      -1.3768     YY     -39.5638
        XZ      -1.1403     YZ      -1.9299     ZZ     -42.0224

 Total job time:  21.72s(wall), 51.99s(cpu)
        *  Thank you very much for using Q-Chem.  Have a nice day.  *
