 Q-Chem 5.0, Q-Chem, Inc., Pleasanton, CA (2017)
 Q-Chem 5.0.2 for Intel X86 EM64T Linux

User input:
--------------------------------------------------------------
$molecule
0 2
C        1.2020483640    0.2968718941    0.3973717450
C        0.6518928159   -1.0857946247   -0.1804447208
C       -0.6016286690   -0.8929725633   -0.8934841491
C       -1.0783918419    0.1715732368    0.0909278821
C       -0.4581395169    1.4742866052   -0.4016724722
N        0.8197271425    1.5144425158   -0.2709841290
H        2.2014198242    0.2461062344    0.8153561967
H        1.3416930674   -1.9208643611   -0.2378177434
H       -0.9371846917   -1.1568044435   -1.8916726194
H       -2.1289013505    0.1926387672    0.3862140645
H       -1.0035715481    2.2511441997   -0.9334929961
C        0.0453266776   -0.3687595079    1.0492656845
H       -0.0542902741   -0.7218679533    2.0704332572
$end

$rem
method                b3lyp
basis                 6-31+g(d,p)
unrestricted          true
symmetry              off
sym_ignore            true
incdft                false
incfock               0
scf_convergence       6
thresh                14
jobtype               sp
scf_guess             read
scf_algorithm         diis
max_scf_cycles        100
stability_analysis    true
max_cis_cycles        100
cis_n_roots           4
$end

--------------------------------------------------------------

             Standard Nuclear Orientation (Angstroms)
    I     Atom           X                Y                Z
 ----------------------------------------------------------------
    1      C       1.2020483640     0.2968718941     0.3973717450
    2      C       0.6518928159    -1.0857946247    -0.1804447208
    3      C      -0.6016286690    -0.8929725633    -0.8934841491
    4      C      -1.0783918419     0.1715732368     0.0909278821
    5      C      -0.4581395169     1.4742866052    -0.4016724722
    6      N       0.8197271425     1.5144425158    -0.2709841290
    7      H       2.2014198242     0.2461062344     0.8153561967
    8      H       1.3416930674    -1.9208643611    -0.2378177434
    9      H      -0.9371846917    -1.1568044435    -1.8916726194
   10      H      -2.1289013505     0.1926387672     0.3862140645
   11      H      -1.0035715481     2.2511441997    -0.9334929961
   12      C       0.0453266776    -0.3687595079     1.0492656845
   13      H      -0.0542902741    -0.7218679533     2.0704332572
 ----------------------------------------------------------------

    2    -286.8593440927      1.21E-09 Convergence criterion met
 Total energy in the final basis set = -286.85934409

         TDDFT/TDA Excitation Energies
 ---------------------------------------------------

 Excited state   1: excitation energy (eV) =    3.4269
 Total energy for state  1:                  -286.73340843 au
    <S**2>     :  0.9289
    Trans. Mom.: -0.0042 X  -0.4357 Y   0.0110 Z
    Strength   :     0.0159526140
    S(  1) --> V(  1) amplitude =  0.9259 alpha
    D( 23) --> S(  1) amplitude = -0.3210 beta

 Excited state   2: excitation energy (eV) =    3.6370
 Total energy for state  2:                  -286.72568586 au
    <S**2>     :  1.2410
    Trans. Mom.:  0.0666 X  -0.0219 Y  -0.0511 Z
    Strength   :     0.0006714985
    D( 24) --> V(  1) amplitude =  0.2674 alpha
    D( 24) --> S(  1) amplitude =  0.9204 beta
    D( 24) --> V(  1) amplitude = -0.1541 beta

 Excited state   3: excitation energy (eV) =    4.1497
 Total energy for state  3:                  -286.70684495 au
    <S**2>     :  0.9458
    Trans. Mom.: -0.1421 X  -0.4732 Y  -0.1225 Z
    Strength   :     0.0263446941
    S(  1) --> V(  1) amplitude =  0.3315 alpha
    D( 23) --> S(  1) amplitude =  0.8884 beta
    D( 23) --> V(  1) amplitude = -0.1789 beta

 Excited state   4: excitation energy (eV) =    4.2991
 Total energy for state  4:                  -286.70135495 au
    <S**2>     :  0.8078
    Trans. Mom.:  0.0334 X   0.0927 Y  -0.1248 Z
    Strength   :     0.0026645176
    S(  1) --> V(  2) amplitude =  0.9829 alpha

 ---------------------------------------------------

                    Orbital Energies (a.u.)
 --------------------------------------------------------------

 Alpha MOs
 -- Occupied --
-14.334 -10.234 -10.230 -10.220 -10.219 -10.219 -10.216  -0.979
 -0.867  -0.759  -0.673  -0.615  -0.580  -0.544  -0.524  -0.475
 -0.448  -0.415  -0.410  -0.366  -0.346  -0.309  -0.285  -0.267
 -0.188

 Beta MOs
 -- Occupied --
-14.333 -10.232 -10.229 -10.221 -10.220 -10.217 -10.204  -0.975
 -0.861  -0.751  -0.662  -0.611  -0.576  -0.537  -0.518  -0.469
 -0.444  -0.412  -0.404  -0.358  -0.342  -0.302  -0.274  -0.262

          Ground-State Mulliken Net Atomic Charges

     Atom                 Charge (a.u.)    Spin (a.u.)
  --------------------------------------------------------
      1 C                    -0.290855       0.102762
      2 C                    -0.054332      -0.154454
      3 C                    -0.153417       0.980025
      4 C                    -0.026500      -0.115406
      5 C                    -0.052738       0.053353
      6 N                    -0.171048       0.035908
      7 H                     0.144223       0.003593
      8 H                     0.138513       0.005193
      9 H                     0.130796      -0.023103
     10 H                     0.133553       0.023553
     11 H                     0.131177       0.001100
     12 C                    -0.062716       0.087197
     13 H                     0.133344       0.000280
  --------------------------------------------------------
  Sum of atomic charges =     0.000000

                    Cartesian Multipole Moments
 -----------------------------------------------------------------
    Charge (ESU x 10^10)
                 0.0000
    Dipole Moment (Debye)
         X      -1.3127      Y      -1.7108      Z       0.7988
       Tot       2.2995
    Quadrupole Moments (Debye-Ang)
        XX     -39.7697     XY      -5.5023     YY     -45.1156
        XZ       2.3538     YZ       0.1885     ZZ     -40.1684

 Total job time:  219.66s(wall), 200.36s(cpu)
        *  Thank you very much for using Q-Chem.  Have a nice day.  *
