 Q-Chem 5.0, Q-Chem, Inc., Pleasanton, CA (2017)
 Q-Chem 5.0.2 for Intel X86 EM64T Linux

User input:
--------------------------------------------------------------
$molecule
0 2
C        1.1178881981    0.1497835100    0.5078453086
C        0.8410762677   -0.9836897933   -0.4921764511
C       -0.4767717848   -0.9589245046   -0.7512812491
C       -1.0712978219    0.1923965751    0.0847483464
C       -0.3803129916    1.4742830019   -0.4233321458
N        0.8762625072    1.4746884064   -0.1995197850
H        2.0814817621    0.1377257464    1.0150195456
H        1.5945911380   -1.6384676416   -0.9158066189
H       -1.0402428180   -1.5828434925   -1.4364036226
H       -2.1552459823    0.2134691380    0.1985642803
H       -0.8834027309    2.2890023599   -0.9414275433
C       -0.1689315856    0.0095212469    1.3096439707
H       -0.3350941578   -0.7769445526    2.0441259643
$end

$rem
method                b3lyp
basis                 6-31g(d)
unrestricted          true
symmetry              off
sym_ignore            true
incdft                false
incfock               0
scf_convergence       8
thresh                14
jobtype               opt
scf_guess             core
scf_guess_mix         5
scf_algorithm         diis
max_scf_cycles        100
geom_opt_max_cycles   300
$end

--------------------------------------------------------------

   21    -286.8516537394      2.53E-09 Convergence criterion met
 Total energy in the final basis set = -286.85165374
   16    -286.8516551614      3.90E-09 Convergence criterion met
 Total energy in the final basis set = -286.85165516
   16    -286.8516562369      4.04E-09 Convergence criterion met
 Total energy in the final basis set = -286.85165624

             Standard Nuclear Orientation (Angstroms)
    I     Atom           X                Y                Z
 ----------------------------------------------------------------
    1      C       1.1178832994     0.1504647269     0.5071172560
    2      C       0.8412170162    -0.9832669769    -0.4924742580
    3      C      -0.4761231641    -0.9583432314    -0.7521052153
    4      C      -1.0712026299     0.1923376245     0.0845305467
    5      C      -0.3806347972     1.4743321331    -0.4231107686
    6      N       0.8759190277     1.4746775151    -0.2009207707
    7      H       2.0813130172     0.1370264041     1.0146323582
    8      H       1.5943963647    -1.6397644638    -0.9140547457
    9      H      -1.0394767459    -1.5833684142    -1.4363870504
   10      H      -2.1550433296     0.2138295472     0.1988367436
   11      H      -0.8837721989     2.2898232493    -0.9400559736
   12      C      -0.1694328684     0.0095775544     1.3099434918
   13      H      -0.3350429910    -0.7773256685     2.0440483859
 ----------------------------------------------------------------

   16    -286.8516565786      4.00E-09 Convergence criterion met
 Total energy in the final basis set = -286.85165658
 Final energy is   -286.851656578627
 **  OPTIMIZATION CONVERGED  **

                    Orbital Energies (a.u.)
 --------------------------------------------------------------

 Alpha MOs
 -- Occupied --
-14.322 -10.224 -10.220 -10.210 -10.204 -10.201 -10.197  -0.952
 -0.821  -0.726  -0.705  -0.579  -0.573  -0.531  -0.512  -0.472
 -0.418  -0.410  -0.381  -0.373  -0.348  -0.294  -0.271  -0.258
 -0.196

 Beta MOs
 -- Occupied --
-14.321 -10.224 -10.221 -10.210 -10.200 -10.196 -10.190  -0.949
 -0.815  -0.725  -0.690  -0.577  -0.561  -0.527  -0.509  -0.463
 -0.414  -0.406  -0.379  -0.369  -0.342  -0.287  -0.261  -0.255

          Ground-State Mulliken Net Atomic Charges

     Atom                 Charge (a.u.)    Spin (a.u.)
  --------------------------------------------------------
      1 C                    -0.094548      -0.045012
      2 C                    -0.087853       0.040256
      3 C                    -0.095953       0.079376
      4 C                    -0.246003      -0.043945
      5 C                     0.092364      -0.008759
      6 N                    -0.325195       0.021883
      7 H                     0.139792       0.003022
      8 H                     0.146095       0.000885
      9 H                     0.145547       0.000345
     10 H                     0.133959       0.002858
     11 H                     0.149629      -0.000175
     12 C                    -0.096704       0.975821
     13 H                     0.138871      -0.026555
  --------------------------------------------------------
  Sum of atomic charges =     0.000000

                    Cartesian Multipole Moments
 -----------------------------------------------------------------
    Charge (ESU x 10^10)
                 0.0000
    Dipole Moment (Debye)
         X      -1.4907      Y      -1.8353      Z      -0.2236
       Tot       2.3750
    Quadrupole Moments (Debye-Ang)
        XX     -38.5688     XY      -4.2034     YY     -42.4548
        XZ       1.8731     YZ      -0.0143     ZZ     -40.4579

 Total job time:  63.80s(wall), 207.48s(cpu)
        *  Thank you very much for using Q-Chem.  Have a nice day.  *
