 Q-Chem 5.0, Q-Chem, Inc., Pleasanton, CA (2017)
 Q-Chem 5.0.2 for Intel X86 EM64T Linux

User input:
--------------------------------------------------------------
$molecule
0 2
C        1.1710553536    0.2316506942    0.4217309538
C        0.7464049778   -1.0117342904   -0.3583800336
C       -0.5522875267   -0.8850105222   -0.8713993516
C       -1.0747512292    0.1892878200    0.0802733931
C       -0.4204283099    1.4898113244   -0.3927640129
N        0.8532493624    1.5055845953   -0.2382344083
H        2.1499731015    0.1850863719    0.8923847221
H        1.4413551027   -1.8330046421   -0.5164882249
H       -1.0510853524   -1.4327103841   -1.6595879261
H       -2.1414760315    0.2038871002    0.3054697703
H       -0.9446845478    2.2830138958   -0.9234524930
C       -0.0416053343   -0.2311312752    1.1495893552
H       -0.1680561074   -0.7330137054    2.0985108136
$end

$rem
method                b3lyp
basis                 6-31g(d)
unrestricted          true
symmetry              off
sym_ignore            true
incdft                false
incfock               0
scf_convergence       8
thresh                14
jobtype               sp
scf_guess             read
scf_algorithm         diis
max_scf_cycles        100
$end

--------------------------------------------------------------

             Standard Nuclear Orientation (Angstroms)
    I     Atom           X                Y                Z
 ----------------------------------------------------------------
    1      C       1.1710553536     0.2316506942     0.4217309538
    2      C       0.7464049778    -1.0117342904    -0.3583800336
    3      C      -0.5522875267    -0.8850105222    -0.8713993516
    4      C      -1.0747512292     0.1892878200     0.0802733931
    5      C      -0.4204283099     1.4898113244    -0.3927640129
    6      N       0.8532493624     1.5055845953    -0.2382344083
    7      H       2.1499731015     0.1850863719     0.8923847221
    8      H       1.4413551027    -1.8330046421    -0.5164882249
    9      H      -1.0510853524    -1.4327103841    -1.6595879261
   10      H      -2.1414760315     0.2038871002     0.3054697703
   11      H      -0.9446845478     2.2830138958    -0.9234524930
   12      C      -0.0416053343    -0.2311312752     1.1495893552
   13      H      -0.1680561074    -0.7330137054     2.0985108136
 ----------------------------------------------------------------

    3    -286.8244965767      1.18E-09 Convergence criterion met
 Total energy in the final basis set = -286.82449658

                    Orbital Energies (a.u.)
 --------------------------------------------------------------

 Alpha MOs
 -- Occupied --
-14.314 -10.224 -10.218 -10.216 -10.212 -10.209 -10.193  -0.959
 -0.836  -0.739  -0.685  -0.590  -0.575  -0.538  -0.513  -0.461
 -0.433  -0.414  -0.398  -0.367  -0.345  -0.284  -0.271  -0.264
 -0.145

 Beta MOs
 -- Occupied --
-14.313 -10.224 -10.219 -10.218 -10.210 -10.204 -10.184  -0.955
 -0.828  -0.735  -0.673  -0.586  -0.566  -0.531  -0.510  -0.453
 -0.429  -0.408  -0.396  -0.362  -0.340  -0.274  -0.261  -0.251

          Ground-State Mulliken Net Atomic Charges

     Atom                 Charge (a.u.)    Spin (a.u.)
  --------------------------------------------------------
      1 C                    -0.028217       0.004263
      2 C                    -0.132254      -0.216208
      3 C                    -0.081541       0.664386
      4 C                    -0.258432      -0.069112
      5 C                     0.091754       0.008720
      6 N                    -0.338855       0.064119
      7 H                     0.146688       0.004290
      8 H                     0.147971       0.011870
      9 H                     0.141922      -0.026841
     10 H                     0.137571       0.010556
     11 H                     0.143589       0.001582
     12 C                    -0.128701       0.570219
     13 H                     0.158504      -0.027842
  --------------------------------------------------------
  Sum of atomic charges =    -0.000000

                    Cartesian Multipole Moments
 -----------------------------------------------------------------
    Charge (ESU x 10^10)
                -0.0000
    Dipole Moment (Debye)
         X      -1.2572      Y      -1.9209      Z       0.6416
       Tot       2.3837
    Quadrupole Moments (Debye-Ang)
        XX     -38.5755     XY      -4.7750     YY     -42.8902
        XZ       1.9980     YZ       0.2218     ZZ     -39.5015

 Total job time:  2.51s(wall), 8.74s(cpu)
        *  Thank you very much for using Q-Chem.  Have a nice day.  *
