 Q-Chem 5.0, Q-Chem, Inc., Pleasanton, CA (2017)
 Q-Chem 5.0.2 for Intel X86 EM64T Linux

User input:
--------------------------------------------------------------
$molecule
0 2
C        1.1722997819    0.2314619880    0.4234871801
C        0.7496865017   -1.0097548267   -0.3627750747
C       -0.5492935903   -0.8794313818   -0.8805066217
C       -1.0742266605    0.1906129619    0.0749795455
C       -0.4215763670    1.4937321563   -0.3917190604
N        0.8529832489    1.5070086776   -0.2304666120
H        2.1498651423    0.1827954822    0.8943296881
H        1.4430258308   -1.8313755913   -0.5196176095
H       -1.0605115782   -1.4506138143   -1.6427081574
H       -2.1406528892    0.2036497210    0.2976581923
H       -0.9436859199    2.2897456886   -0.9183415331
C       -0.0409892156   -0.2400118324    1.1431525371
H       -0.1692608261   -0.7261022465    2.1001800833
$end

$rem
method                b3lyp
basis                 6-31+g(d,p)
unrestricted          true
symmetry              off
sym_ignore            true
incdft                false
incfock               0
scf_convergence       8
thresh                14
jobtype               freq
scf_guess             read
scf_algorithm         diis
max_scf_cycles        100
$end

--------------------------------------------------------------

             Standard Nuclear Orientation (Angstroms)
    I     Atom           X                Y                Z
 ----------------------------------------------------------------
    1      C       1.1722997819     0.2314619880     0.4234871801
    2      C       0.7496865017    -1.0097548267    -0.3627750747
    3      C      -0.5492935903    -0.8794313818    -0.8805066217
    4      C      -1.0742266605     0.1906129619     0.0749795455
    5      C      -0.4215763670     1.4937321563    -0.3917190604
    6      N       0.8529832489     1.5070086776    -0.2304666120
    7      H       2.1498651423     0.1827954822     0.8943296881
    8      H       1.4430258308    -1.8313755913    -0.5196176095
    9      H      -1.0605115782    -1.4506138143    -1.6427081574
   10      H      -2.1406528892     0.2036497210     0.2976581923
   11      H      -0.9436859199     2.2897456886    -0.9183415331
   12      C      -0.0409892156    -0.2400118324     1.1431525371
   13      H      -0.1692608261    -0.7261022465     2.1001800833
 ----------------------------------------------------------------

    2    -286.8475377374      5.28E-10 Convergence criterion met
 Total energy in the final basis set = -286.84753774

                    Orbital Energies (a.u.)
 --------------------------------------------------------------

 Alpha MOs
 -- Occupied --
-14.330 -10.235 -10.230 -10.229 -10.226 -10.221 -10.206  -0.972
 -0.849  -0.751  -0.696  -0.602  -0.585  -0.548  -0.522  -0.472
 -0.444  -0.424  -0.409  -0.378  -0.356  -0.296  -0.284  -0.277
 -0.157

 Beta MOs
 -- Occupied --
-14.329 -10.235 -10.231 -10.230 -10.222 -10.217 -10.197  -0.968
 -0.842  -0.747  -0.684  -0.598  -0.577  -0.541  -0.519  -0.463
 -0.441  -0.419  -0.406  -0.373  -0.351  -0.287  -0.275  -0.265

          Ground-State Mulliken Net Atomic Charges

     Atom                 Charge (a.u.)    Spin (a.u.)
  --------------------------------------------------------
      1 C                    -0.133255      -0.020813
      2 C                    -0.104233      -0.233534
      3 C                    -0.139879       0.728411
      4 C                     0.001918      -0.101873
      5 C                    -0.069985      -0.002151
      6 N                    -0.179931       0.062224
      7 H                     0.138943       0.004338
      8 H                     0.139217       0.010319
      9 H                     0.138990      -0.028730
     10 H                     0.129079       0.010623
     11 H                     0.132681       0.001552
     12 C                    -0.199486       0.594042
     13 H                     0.145943      -0.024409
  --------------------------------------------------------
  Sum of atomic charges =     0.000000

                    Cartesian Multipole Moments
 -----------------------------------------------------------------
    Charge (ESU x 10^10)
                 0.0000
    Dipole Moment (Debye)
         X      -1.3852      Y      -2.0677      Z       0.7526
       Tot       2.6001
    Quadrupole Moments (Debye-Ang)
        XX     -39.3848     XY      -5.3177     YY     -44.6063
        XZ       2.1581     YZ       0.2140     ZZ     -41.3547

 Frequency:      -653.49                 335.05                 391.92
 Force Cnst:      1.3581                 0.0777                 0.1020
 Red. Mass:       5.3975                 1.1751                 1.1269
 IR Intens:       34.449                 20.815                 30.289
 Frequency:       439.47                 482.98                 607.15
 Force Cnst:      0.4242                 0.5226                 1.0021
 Red. Mass:       3.7281                 3.8026                 4.6138
 IR Intens:        7.384                  6.140                 15.039
 Frequency:       741.32                 785.00                 826.14
 Force Cnst:      1.9319                 2.5508                 0.8664
 Red. Mass:       5.9665                 7.0257                 2.1545
 IR Intens:        3.380                  5.095                 17.317
 Frequency:       852.88                 882.32                 892.68
 Force Cnst:      1.7573                 1.0119                 0.6886
 Red. Mass:       4.1003                 2.2062                 1.4666
 IR Intens:        9.559                  8.194                  2.787
 Frequency:       914.10                 925.47                 957.76
 Force Cnst:      0.9873                 0.8264                 1.0734
 Red. Mass:       2.0055                 1.6376                 1.9861
 IR Intens:        1.289                 20.045                  2.706
 Frequency:       972.72                1026.56                1083.39
 Force Cnst:      1.1334                 1.2926                 1.2155
 Red. Mass:       2.0331                 2.0818                 1.7576
 IR Intens:        2.464                  3.868                  5.254
 Frequency:      1140.42                1175.54                1213.92
 Force Cnst:      1.2899                 1.4955                 1.3249
 Red. Mass:       1.6833                 1.8368                 1.5260
 IR Intens:       15.467                  1.895                  5.635
 Frequency:      1241.85                1271.84                1318.30
 Force Cnst:      1.4571                 1.2000                 1.5495
 Red. Mass:       1.6037                 1.2591                 1.5132
 IR Intens:        7.049                  1.071                  6.418
 Frequency:      1320.63                1404.07                1626.45
 Force Cnst:      1.8067                 3.1433                11.7016
 Red. Mass:       1.7583                 2.7062                 7.5078
 IR Intens:       15.661                  1.583                 44.284
 Frequency:      3146.37                3184.20                3185.83
 Force Cnst:      6.3582                 6.5126                 6.5438
 Red. Mass:       1.0901                 1.0902                 1.0943
 IR Intens:       17.953                 13.357                 14.052
 Frequency:      3194.85                3257.91                3263.53
 Force Cnst:      6.5720                 6.8478                 6.8804
 Red. Mass:       1.0928                 1.0950                 1.0964
 IR Intens:       18.873                  1.154                  0.549

 STANDARD THERMODYNAMIC QUANTITIES AT   298.15 K  AND     1.00 ATM

   This Molecule has  1 Imaginary Frequencies
   Zero point vibrational energy:       62.991 kcal/mol

   Atom    1 Element C  Has Mass   12.00000
   Atom    2 Element C  Has Mass   12.00000
   Atom    3 Element C  Has Mass   12.00000
   Atom    4 Element C  Has Mass   12.00000
   Atom    5 Element C  Has Mass   12.00000
   Atom    6 Element N  Has Mass   14.00307
   Atom    7 Element H  Has Mass    1.00783
   Atom    8 Element H  Has Mass    1.00783
   Atom    9 Element H  Has Mass    1.00783
   Atom   10 Element H  Has Mass    1.00783
   Atom   11 Element H  Has Mass    1.00783
   Atom   12 Element C  Has Mass   12.00000
   Atom   13 Element H  Has Mass    1.00783
   Molecular Mass:    92.050050 amu
   Principal axes and moments of inertia in amu*Bohr^2:
                             1           2           3
    Eigenvalues --      376.98220   456.59814   566.63295
          X               0.13646     0.93930    -0.31480
          Y               0.99013    -0.13960     0.01267
          Z               0.03205     0.31342     0.94907
   Rotational Symmetry Number is   1
   The Molecule is an Asymmetric Top
   Translational Enthalpy:        0.889 kcal/mol
   Rotational Enthalpy:           0.889 kcal/mol
   Vibrational Enthalpy:         64.338 kcal/mol
   gas constant (RT):             0.592 kcal/mol
   Translational Entropy:        39.471  cal/mol.K
   Rotational Entropy:           26.081  cal/mol.K
   Vibrational Entropy:           6.228  cal/mol.K

   Total Enthalpy:               66.708 kcal/mol
   Total Entropy:                71.780  cal/mol.K

 Total job time:  568.62s(wall), 559.03s(cpu)
        *  Thank you very much for using Q-Chem.  Have a nice day.  *
