 Q-Chem 5.0, Q-Chem, Inc., Pleasanton, CA (2017)
 Q-Chem 5.0.2 for Intel X86 EM64T Linux

User input:
--------------------------------------------------------------
$molecule
0 2
C        1.6618174334    0.2115225506   -2.2107922527
C        1.1629364380   -0.9760588517   -2.0988638438
C       -0.2169433251   -1.2371443988   -2.3679373644
C       -1.4366963231    0.4312472604   -0.6186437886
C       -0.8635881300    0.8884109338   -1.9555944856
N        0.9045856183    1.4317804738   -2.6832781371
H        2.6707808131    0.1417703155   -1.7422032854
H        1.7548475705   -1.7061573825   -1.5068034230
H       -0.8397795963   -1.8402756146   -2.9702527282
H       -2.0757290003    0.9480777982    0.1703378286
H       -1.2889223129    1.5597027516   -2.7778466506
C       -1.2607651677   -0.8366902445   -1.0451037117
H       -1.7376353396   -1.5271014875   -0.4080473026
$end

$rem
method                b3lyp
basis                 6-31g(d)
unrestricted          true
symmetry              off
sym_ignore            true
incdft                false
incfock               0
scf_convergence       8
thresh                14
jobtype               opt
scf_guess             read
scf_algorithm         diis
max_scf_cycles        100
geom_opt_tol_gradient 600
geom_opt_tol_displacement 2400
geom_opt_tol_energy   200
geom_opt_max_cycles   100
$end

--------------------------------------------------------------

    2    -286.6105207535      5.69E-09 Convergence criterion met
 Total energy in the final basis set = -286.61052075
   20    -286.7039125707      9.24E-09 Convergence criterion met
 Total energy in the final basis set = -286.70391257
   19    -286.7697086386      7.75E-09 Convergence criterion met
 Total energy in the final basis set = -286.76970864
   16    -286.8110778128      5.01E-09 Convergence criterion met
 Total energy in the final basis set = -286.81107781
   15    -286.8349188051      7.32E-09 Convergence criterion met
 Total energy in the final basis set = -286.83491881
   16    -286.8539677569      5.59E-09 Convergence criterion met
 Total energy in the final basis set = -286.85396776
   15    -286.8623736959      8.57E-09 Convergence criterion met
 Total energy in the final basis set = -286.86237370
   15    -286.8712549342      9.27E-09 Convergence criterion met
   11    -286.8754803687      4.68E-09 Convergence criterion met
 Total energy in the final basis set = -286.87548037
   11    -286.8754863620      3.90E-09 Convergence criterion met
 Total energy in the final basis set = -286.87548636
   11    -286.8754901978      3.10E-09 Convergence criterion met
 Total energy in the final basis set = -286.87549020
   10    -286.8754931215      6.55E-09 Convergence criterion met
 Total energy in the final basis set = -286.87549312
   10    -286.8754958717      7.69E-09 Convergence criterion met
 Total energy in the final basis set = -286.87549587
   10    -286.8754980584      7.63E-09 Convergence criterion met
 Total energy in the final basis set = -286.87549806

             Standard Nuclear Orientation (Angstroms)
    I     Atom           X                Y                Z
 ----------------------------------------------------------------
    1      C       1.5796333624     0.2613126807    -1.9517397706
    2      C       1.0391321113    -1.0304615573    -2.0485082903
    3      C      -0.4431634017    -0.9073731757    -2.1801674492
    4      C      -1.3777435802     0.4530161420    -0.8475048494
    5      C      -0.6086716682     0.6638131748    -2.1517007857
    6      N       0.7118035000     1.2663985860    -2.0045110611
    7      H       2.6383707701     0.4764387841    -1.8151193602
    8      H       1.6001626470    -1.9567520063    -1.9914436484
    9      H      -0.8813837013    -1.4754487311    -3.0109795584
   10      H      -1.8158265673     1.1630251406    -0.1529374950
   11      H      -1.1691903023     1.1339753519    -2.9687422426
   12      C      -1.2566417215    -0.8785974413    -0.8751651947
   13      H      -1.5815727701    -1.6802628440    -0.2165094395
 ----------------------------------------------------------------

   10    -286.8754993803      6.78E-09 Convergence criterion met
 Total energy in the final basis set = -286.87549938
 Final energy is   -286.875499380347
 **  OPTIMIZATION CONVERGED  **

                    Orbital Energies (a.u.)
 --------------------------------------------------------------

 Alpha MOs
 -- Occupied --
-14.328 -10.217 -10.216 -10.207 -10.202 -10.200 -10.195  -0.944
 -0.838  -0.752  -0.665  -0.618  -0.554  -0.523  -0.515  -0.481
 -0.428  -0.403  -0.386  -0.354  -0.341  -0.322  -0.270  -0.253
 -0.203

 Beta MOs
 -- Occupied --
-14.318 -10.219 -10.218 -10.203 -10.199 -10.198 -10.194  -0.932
 -0.831  -0.734  -0.665  -0.610  -0.549  -0.520  -0.512  -0.475
 -0.420  -0.396  -0.381  -0.343  -0.334  -0.301  -0.264  -0.246

          Ground-State Mulliken Net Atomic Charges

     Atom                 Charge (a.u.)    Spin (a.u.)
  --------------------------------------------------------
      1 C                     0.048324      -0.230629
      2 C                    -0.114738       0.693352
      3 C                    -0.193830      -0.053929
      4 C                    -0.076163       0.032523
      5 C                    -0.061635      -0.027768
      6 N                    -0.351468       0.516817
      7 H                     0.140533       0.007426
      8 H                     0.143384      -0.032154
      9 H                     0.147993       0.025352
     10 H                     0.137411       0.003608
     11 H                     0.151664       0.025127
     12 C                    -0.104806       0.033404
     13 H                     0.133332       0.006870
  --------------------------------------------------------
  Sum of atomic charges =     0.000000

                    Cartesian Multipole Moments
 -----------------------------------------------------------------
    Charge (ESU x 10^10)
                 0.0000
    Dipole Moment (Debye)
         X      -0.4856      Y      -2.0982      Z       0.0637
       Tot       2.1546
    Quadrupole Moments (Debye-Ang)
        XX     -37.8432     XY      -2.5324     YY     -41.7129
        XZ       0.4792     YZ       4.0647     ZZ     -40.1530

 Total job time:  1237.73s(wall), 1586.25s(cpu)
        *  Thank you very much for using Q-Chem.  Have a nice day.  *
