 Q-Chem 5.0, Q-Chem, Inc., Pleasanton, CA (2017)
 Q-Chem 5.0.2 for Intel X86 EM64T Linux

User input:
--------------------------------------------------------------
$molecule
0 2
C        1.1313057399    0.1421300425    0.4813772685
C        0.8226872974   -0.9981175663   -0.5023523275
C       -0.5007680845   -0.9567041943   -0.7421187399
C       -1.0673532594    0.2040250099    0.1023678996
C       -0.3777508977    1.4769089354   -0.4259374702
N        0.8848369478    1.4624368921   -0.2296839344
H        2.1047766271    0.1243014400    0.9675931947
H        1.5571892978   -1.6761527830   -0.9209851724
H       -1.0827382583   -1.5775976645   -1.4135531402
H       -2.1477035724    0.2357297152    0.2398643643
H       -0.8835005457    2.2975228476   -0.9303717150
C       -0.1409036481    0.0160663831    1.3091726063
H       -0.3000776440   -0.7505490577    2.0646271661
$end

$rem
method                b3lyp
basis                 6-31+g(d,p)
unrestricted          true
symmetry              off
sym_ignore            true
incdft                false
incfock               0
scf_convergence       6
thresh                14
jobtype               sp
scf_guess             read
scf_algorithm         diis
max_scf_cycles        100
stability_analysis    true
max_cis_cycles        100
cis_n_roots           4
$end

--------------------------------------------------------------

             Standard Nuclear Orientation (Angstroms)
    I     Atom           X                Y                Z
 ----------------------------------------------------------------
    1      C       1.1313057399     0.1421300425     0.4813772685
    2      C       0.8226872974    -0.9981175663    -0.5023523275
    3      C      -0.5007680845    -0.9567041943    -0.7421187399
    4      C      -1.0673532594     0.2040250099     0.1023678996
    5      C      -0.3777508977     1.4769089354    -0.4259374702
    6      N       0.8848369478     1.4624368921    -0.2296839344
    7      H       2.1047766271     0.1243014400     0.9675931947
    8      H       1.5571892978    -1.6761527830    -0.9209851724
    9      H      -1.0827382583    -1.5775976645    -1.4135531402
   10      H      -2.1477035724     0.2357297152     0.2398643643
   11      H      -0.8835005457     2.2975228476    -0.9303717150
   12      C      -0.1409036481     0.0160663831     1.3091726063
   13      H      -0.3000776440    -0.7505490577     2.0646271661
 ----------------------------------------------------------------

    2    -286.8735023154      2.04E-09 Convergence criterion met
 Total energy in the final basis set = -286.87350232

         TDDFT/TDA Excitation Energies
 ---------------------------------------------------

 Excited state   1: excitation energy (eV) =    3.1005
 Total energy for state  1:                  -286.75955965 au
    <S**2>     :  1.1532
    Trans. Mom.: -0.0914 X   0.0464 Y  -0.0593 Z
    Strength   :     0.0010641537
    S(  1) --> V(  1) amplitude =  0.9398 alpha
    D( 23) --> V(  1) amplitude = -0.1755 beta
    D( 24) --> V(  1) amplitude =  0.1577 beta

 Excited state   2: excitation energy (eV) =    4.1341
 Total energy for state  2:                  -286.72157679 au
    <S**2>     :  1.7065
    Trans. Mom.:  0.0057 X  -0.0144 Y  -0.0665 Z
    Strength   :     0.0004717204
    D( 22) --> V(  1) amplitude = -0.1982 alpha
    D( 24) --> V(  1) amplitude =  0.3038 alpha
    S(  1) --> V(  1) amplitude =  0.1743 alpha
    S(  1) --> V(  2) amplitude =  0.5006 alpha
    S(  1) --> V(  3) amplitude =  0.2239 alpha
    D( 22) --> V(  1) amplitude =  0.1775 beta
    D( 23) --> S(  1) amplitude = -0.2303 beta
    D( 23) --> V(  3) amplitude = -0.1956 beta
    D( 24) --> S(  1) amplitude = -0.4450 beta
    D( 24) --> V(  1) amplitude = -0.3383 beta

 Excited state   3: excitation energy (eV) =    4.2568
 Total energy for state  3:                  -286.71706922 au
    <S**2>     :  1.7138
    Trans. Mom.:  0.0200 X   0.0977 Y   0.0883 Z
    Strength   :     0.0018504970
    D( 22) --> V(  1) amplitude = -0.1650 alpha
    D( 24) --> V(  1) amplitude = -0.3275 alpha
    S(  1) --> V(  2) amplitude =  0.4544 alpha
    S(  1) --> V(  3) amplitude =  0.2092 alpha
    D( 22) --> V(  1) amplitude =  0.1741 beta
    D( 23) --> S(  1) amplitude =  0.2435 beta
    D( 23) --> V(  1) amplitude =  0.2955 beta
    D( 24) --> S(  1) amplitude =  0.5260 beta
    D( 24) --> V(  3) amplitude =  0.2245 beta

 Excited state   4: excitation energy (eV) =    4.3668
 Total energy for state  4:                  -286.71302509 au
    <S**2>     :  2.1748
    Trans. Mom.:  0.0204 X   0.0474 Y   0.2227 Z
    Strength   :     0.0055926833
    D( 22) --> V(  1) amplitude = -0.2101 alpha
    D( 22) --> V(  2) amplitude = -0.1638 alpha
    D( 23) --> V(  1) amplitude = -0.5196 alpha
    S(  1) --> V(  1) amplitude = -0.2093 alpha
    D( 22) --> S(  1) amplitude =  0.1644 beta
    D( 22) --> V(  1) amplitude =  0.2675 beta
    D( 22) --> V(  3) amplitude =  0.1591 beta
    D( 23) --> S(  1) amplitude = -0.4060 beta
    D( 23) --> V(  1) amplitude = -0.3865 beta
    D( 24) --> S(  1) amplitude =  0.2584 beta
    D( 24) --> V(  1) amplitude =  0.1979 beta

 ---------------------------------------------------

                    Orbital Energies (a.u.)
 --------------------------------------------------------------

 Alpha MOs
 -- Occupied --
-14.337 -10.235 -10.231 -10.221 -10.216 -10.213 -10.209  -0.965
 -0.833  -0.737  -0.715  -0.589  -0.583  -0.539  -0.520  -0.481
 -0.429  -0.420  -0.391  -0.382  -0.358  -0.305  -0.283  -0.271
 -0.206

 Beta MOs
 -- Occupied --
-14.336 -10.235 -10.231 -10.221 -10.211 -10.208 -10.202  -0.961
 -0.827  -0.735  -0.700  -0.587  -0.571  -0.536  -0.517  -0.472
 -0.426  -0.416  -0.389  -0.379  -0.352  -0.298  -0.273  -0.268

          Ground-State Mulliken Net Atomic Charges

     Atom                 Charge (a.u.)    Spin (a.u.)
  --------------------------------------------------------
      1 C                     0.026562      -0.090440
      2 C                    -0.147497       0.044232
      3 C                    -0.128191       0.096123
      4 C                     0.008735      -0.061162
      5 C                    -0.090975      -0.031580
      6 N                    -0.204497       0.026083
      7 H                     0.129444       0.003607
      8 H                     0.138860       0.000737
      9 H                     0.138437       0.000097
     10 H                     0.124851       0.003451
     11 H                     0.137313      -0.000089
     12 C                    -0.271862       1.035157
     13 H                     0.138819      -0.026218
  --------------------------------------------------------
  Sum of atomic charges =    -0.000000

                    Cartesian Multipole Moments
 -----------------------------------------------------------------
    Charge (ESU x 10^10)
                 0.0000
    Dipole Moment (Debye)
         X      -1.6681      Y      -1.9748      Z      -0.1753
       Tot       2.5910
    Quadrupole Moments (Debye-Ang)
        XX     -39.3657     XY      -4.7419     YY     -44.1041
        XZ       2.1784     YZ      -0.0871     ZZ     -42.0009

 Total job time:  225.94s(wall), 212.28s(cpu)
        *  Thank you very much for using Q-Chem.  Have a nice day.  *
