 Q-Chem 5.0, Q-Chem, Inc., Pleasanton, CA (2017)
 Q-Chem 5.0.2 for Intel X86 EM64T Linux

User input:
--------------------------------------------------------------
$molecule
0 2
C        1.5754785653    0.4456378027   -0.0864065337
C        0.8223283915   -0.8151126325    0.1169043780
C       -0.5184346897   -0.9679999234   -0.5827410394
C       -1.1197088540    0.3163730023   -0.0359153085
C       -0.3701531584    1.5790024873   -0.2391948709
N        0.9609384316    1.6142423936   -0.2595241318
H        2.6636733083    0.4391202389   -0.0978608632
H        1.4056143291   -1.7249866416    0.2489551345
H       -0.9199163278   -1.7438934080   -1.2196390896
H       -2.2065761233    0.3796194190   -0.0333785087
H       -0.9038662590    2.5172603176   -0.3783017375
C       -0.5020008311   -0.7459385163    0.8590849691
H       -0.8873767824   -1.2933245392    1.7080176017
****
C        1.1178832994    0.1504647269    0.5071172560
C        0.8412170162   -0.9832669769   -0.4924742580
C       -0.4761231641   -0.9583432314   -0.7521052153
C       -1.0712026299    0.1923376245    0.0845305467
C       -0.3806347972    1.4743321331   -0.4231107686
N        0.8759190277    1.4746775151   -0.2009207707
H        2.0813130172    0.1370264041    1.0146323582
H        1.5943963647   -1.6397644638   -0.9140547457
H       -1.0394767459   -1.5833684142   -1.4363870504
H       -2.1550433296    0.2138295472    0.1988367436
H       -0.8837721989    2.2898232493   -0.9400559736
C       -0.1694328684    0.0095775544    1.3099434918
H       -0.3350429910   -0.7773256685    2.0440483859
$end

$rem
method                b3lyp
basis                 6-31g(d)
unrestricted          true
symmetry              off
sym_ignore            true
incdft                false
incfock               0
scf_convergence       8
thresh                14
jobtype               fsm
scf_guess             core
scf_guess_mix         5
scf_algorithm         diis
max_scf_cycles        100
fsm_nnode             21
fsm_ngrad             6
fsm_mode              2
fsm_opt_mode          2
$end

--------------------------------------------------------------

   19    -286.8584671167      3.63E-09 Convergence criterion met
 Total energy in the final basis set = -286.85846712
   21    -286.8516565941      2.66E-09 Convergence criterion met
 Total energy in the final basis set = -286.85165659
   19    -286.8561446713      7.00E-09 Convergence criterion met
 Total energy in the final basis set = -286.85614467
   19    -286.8567868844      5.98E-09 Convergence criterion met
 Total energy in the final basis set = -286.85678688
   21    -286.8494283759      5.89E-09 Convergence criterion met
 Total energy in the final basis set = -286.84942838
   21    -286.8500782547      5.03E-09 Convergence criterion met
 Total energy in the final basis set = -286.85007825
   19    -286.8533793053      8.34E-09 Convergence criterion met
 Total energy in the final basis set = -286.85337931
   19    -286.8561475768      8.99E-09 Convergence criterion met
 Total energy in the final basis set = -286.77293493
   25    -286.7720107136      7.61E-09 Convergence criterion met
 Total energy in the final basis set = -286.77201071
   25    -286.7729436883      7.38E-09 Convergence criterion met
 Total energy in the final basis set = -286.77294369
   25    -286.7720115405      6.52E-09 Convergence criterion met
 Total energy in the final basis set = -286.77201154
   25    -286.7729532238      8.08E-09 Convergence criterion met
 Total energy in the final basis set = -286.77295322
   25    -286.7720119187      5.61E-09 Convergence criterion met
 Total energy in the final basis set = -286.77201192
   25    -286.7729742817      8.57E-09 Convergence criterion met
 Total energy in the final basis set = -286.77297428
   25    -286.7719997845      4.96E-09 Convergence criterion met
 Total energy in the final basis set = -286.77199978

                    Orbital Energies (a.u.)
 --------------------------------------------------------------

 Alpha MOs
 -- Occupied --
-14.326 -10.248 -10.226 -10.225 -10.221 -10.211 -10.198  -0.962
 -0.853  -0.751  -0.653  -0.617  -0.600  -0.537  -0.494  -0.452
 -0.442  -0.431  -0.401  -0.370  -0.352  -0.291  -0.270  -0.259
 -0.118

 Beta MOs
 -- Occupied --
-14.326 -10.247 -10.227 -10.224 -10.212 -10.211 -10.192  -0.959
 -0.845  -0.749  -0.644  -0.611  -0.590  -0.533  -0.492  -0.449
 -0.436  -0.425  -0.397  -0.366  -0.345  -0.283  -0.266  -0.226

          Ground-State Mulliken Net Atomic Charges

     Atom                 Charge (a.u.)    Spin (a.u.)
  --------------------------------------------------------
      1 C                     0.044162       0.020523
      2 C                    -0.167842      -0.078159
      3 C                    -0.096417       0.438475
      4 C                    -0.267045      -0.023086
      5 C                     0.092486       0.097794
      6 N                    -0.343930       0.004126
      7 H                     0.161677      -0.002679
      8 H                     0.154775       0.002731
      9 H                     0.144306      -0.019620
     10 H                     0.141710       0.000986
     11 H                     0.149650      -0.004316
     12 C                    -0.168604       0.575752
     13 H                     0.155071      -0.012525
  --------------------------------------------------------
  Sum of atomic charges =    -0.000000

                    Cartesian Multipole Moments
 -----------------------------------------------------------------
    Charge (ESU x 10^10)
                -0.0000
    Dipole Moment (Debye)
         X      -0.9582      Y      -2.1869      Z      -0.0670
       Tot       2.3885
    Quadrupole Moments (Debye-Ang)
        XX     -37.1336     XY      -3.8708     YY     -40.6943
        XZ       1.2337     YZ      -0.6821     ZZ     -44.1030

             Standard Nuclear Orientation (Angstroms)
    I     Atom           X                Y                Z
 ----------------------------------------------------------------
    1      C       1.3508310446     0.3425182941     0.2245868273
    2      C       0.7876249647    -0.9055224206    -0.2863464906
    3      C      -0.5186769396    -0.8373084709    -0.8234941720
    4      C      -1.0704899465     0.2435019489     0.0581095270
    5      C      -0.4073055694     1.5410387565    -0.3787639528
    6      N       0.8772628773     1.5512413055    -0.2313299856
    7      H       2.3195977034     0.3360888111     0.7147486835
    8      H       1.4119930239    -1.8020257150    -0.2875602812
    9      H      -1.0629061242    -1.6620716303    -1.2655426713
   10      H      -2.1545702572     0.3036054138     0.1976181895
   11      H      -0.9319215325     2.3800890487    -0.8267526571
   12      C      -0.1614801760    -0.3149532393     1.1758656739
   13      H      -0.4722956096    -1.2144851201     1.7165138671
 ----------------------------------------------------------------

 Total job time:  1241.95s(wall), 3831.85s(cpu)
        *  Thank you very much for using Q-Chem.  Have a nice day.  *
