 Q-Chem 5.0, Q-Chem, Inc., Pleasanton, CA (2017)
 Q-Chem 5.0.2 for Intel X86 EM64T Linux

User input:
--------------------------------------------------------------
$molecule
0 2
C        1.1722997819    0.2314619880    0.4234871801
C        0.7496865017   -1.0097548267   -0.3627750747
C       -0.5492935903   -0.8794313818   -0.8805066217
C       -1.0742266605    0.1906129619    0.0749795455
C       -0.4215763670    1.4937321563   -0.3917190604
N        0.8529832489    1.5070086776   -0.2304666120
H        2.1498651423    0.1827954822    0.8943296881
H        1.4430258308   -1.8313755913   -0.5196176095
H       -1.0605115782   -1.4506138143   -1.6427081574
H       -2.1406528892    0.2036497210    0.2976581923
H       -0.9436859199    2.2897456886   -0.9183415331
C       -0.0409892156   -0.2400118324    1.1431525371
H       -0.1692608261   -0.7261022465    2.1001800833
$end

$rem
method                b3lyp
basis                 6-31+g(d,p)
unrestricted          true
symmetry              off
sym_ignore            true
incdft                false
incfock               0
scf_convergence       8
thresh                14
jobtype               rpath
scf_guess             core
scf_guess_mix         5
scf_algorithm         diis
max_scf_cycles        100
rpath_direction       1
rpath_tol_displacement 1000
rpath_max_cycles      50
geom_opt_max_cycles   300
geom_opt_hessian      read
$end

--------------------------------------------------------------

   22    -286.8475377374      6.54E-09 Convergence criterion met
 Total energy in the final basis set = -286.84753774
   22    -286.8492516803      4.16E-09 Convergence criterion met
 Total energy in the final basis set = -286.84925168
   21    -286.8492241377      8.33E-09 Convergence criterion met
 Total energy in the final basis set = -286.84922414
   22    -286.8492541687      4.07E-09 Convergence criterion met
 Total energy in the final basis set = -286.84925417
   21    -286.8538294117      8.36E-09 Convergence criterion met
 Total energy in the final basis set = -286.85382941
   21    -286.8537731371      8.41E-09 Convergence criterion met
 Total energy in the final basis set = -286.85377314
   21    -286.8538377383      8.35E-09 Convergence criterion met
 Total energy in the final basis set = -286.85383774
   22    -286.8592360323      2.75E-09 Convergence criterion met
 Total energy in the final basis set = -286.85898731
   21    -286.8593341700      5.24E-09 Convergence criterion met
 Total energy in the final basis set = -286.85933417
   21    -286.8592823442      5.42E-09 Convergence criterion met
 Total energy in the final basis set = -286.85928234
   21    -286.8593407927      5.29E-09 Convergence criterion met
 Total energy in the final basis set = -286.85934079
   20    -286.8549729431      9.72E-09 Convergence criterion met
 Total energy in the final basis set = -286.85497294
   21    -286.8593435074      5.20E-09 Convergence criterion met
 Total energy in the final basis set = -286.85934351
   21    -286.8593430771      5.33E-09 Convergence criterion met
 Total energy in the final basis set = -286.85934308
   21    -286.8593440927      5.25E-09 Convergence criterion met
 Total energy in the final basis set = -286.85934409

                    Orbital Energies (a.u.)
 --------------------------------------------------------------

 Alpha MOs
 -- Occupied --
-14.334 -10.234 -10.230 -10.220 -10.219 -10.219 -10.216  -0.979
 -0.867  -0.759  -0.673  -0.615  -0.580  -0.544  -0.524  -0.475
 -0.448  -0.415  -0.410  -0.366  -0.346  -0.309  -0.285  -0.267
 -0.188

 Beta MOs
 -- Occupied --
-14.333 -10.232 -10.229 -10.221 -10.220 -10.217 -10.204  -0.975
 -0.861  -0.751  -0.662  -0.611  -0.576  -0.537  -0.518  -0.469
 -0.444  -0.412  -0.404  -0.358  -0.342  -0.302  -0.274  -0.262

          Ground-State Mulliken Net Atomic Charges

     Atom                 Charge (a.u.)    Spin (a.u.)
  --------------------------------------------------------
      1 C                    -0.290856       0.102763
      2 C                    -0.054332      -0.154455
      3 C                    -0.153417       0.980026
      4 C                    -0.026500      -0.115407
      5 C                    -0.052738       0.053352
      6 N                    -0.171048       0.035908
      7 H                     0.144223       0.003593
      8 H                     0.138513       0.005193
      9 H                     0.130796      -0.023103
     10 H                     0.133553       0.023553
     11 H                     0.131177       0.001100
     12 C                    -0.062716       0.087197
     13 H                     0.133344       0.000280
  --------------------------------------------------------
  Sum of atomic charges =     0.000000

                    Cartesian Multipole Moments
 -----------------------------------------------------------------
    Charge (ESU x 10^10)
                 0.0000
    Dipole Moment (Debye)
         X      -1.3127      Y      -1.7108      Z       0.7988
       Tot       2.2995
    Quadrupole Moments (Debye-Ang)
        XX     -39.7632     XY      -5.4942     YY     -45.1056
        XZ       2.3531     YZ       0.1878     ZZ     -40.1699

             Standard Nuclear Orientation (Angstroms)
    I     Atom           X                Y                Z
 ----------------------------------------------------------------
    1      C       1.1722997819     0.2314619880     0.4234871801
    2      C       0.7496865017    -1.0097548267    -0.3627750747
    3      C      -0.5492935903    -0.8794313818    -0.8805066217
    4      C      -1.0742266605     0.1906129619     0.0749795455
    5      C      -0.4215763670     1.4937321563    -0.3917190604
    6      N       0.8529832489     1.5070086776    -0.2304666120
    7      H       2.1498651423     0.1827954822     0.8943296881
    8      H       1.4430258308    -1.8313755913    -0.5196176095
    9      H      -1.0605115782    -1.4506138143    -1.6427081574
   10      H      -2.1406528892     0.2036497210     0.2976581923
   11      H      -0.9436859199     2.2897456886    -0.9183415331
   12      C      -0.0409892156    -0.2400118324     1.1431525371
   13      H      -0.1692608261    -0.7261022465     2.1001800833
 ----------------------------------------------------------------

 Total job time:  9814.63s(wall), 31336.49s(cpu)
        *  Thank you very much for using Q-Chem.  Have a nice day.  *
