 Q-Chem 5.0, Q-Chem, Inc., Pleasanton, CA (2017)
 Q-Chem 5.0.2 for Intel X86 EM64T Linux

User input:
--------------------------------------------------------------
$molecule
0 2
C        1.1710553536    0.2316506942    0.4217309538
C        0.7464049778   -1.0117342904   -0.3583800336
C       -0.5522875267   -0.8850105222   -0.8713993516
C       -1.0747512292    0.1892878200    0.0802733931
C       -0.4204283099    1.4898113244   -0.3927640129
N        0.8532493624    1.5055845953   -0.2382344083
H        2.1499731015    0.1850863719    0.8923847221
H        1.4413551027   -1.8330046421   -0.5164882249
H       -1.0510853524   -1.4327103841   -1.6595879261
H       -2.1414760315    0.2038871002    0.3054697703
H       -0.9446845478    2.2830138958   -0.9234524930
C       -0.0416053343   -0.2311312752    1.1495893552
H       -0.1680561074   -0.7330137054    2.0985108136
$end

$rem
method                b3lyp
basis                 6-31+g(d,p)
unrestricted          true
symmetry              off
sym_ignore            true
incdft                false
incfock               0
scf_convergence       8
thresh                14
jobtype               sp
scf_guess             core
scf_guess_mix         5
scf_algorithm         diis
max_scf_cycles        100
$end

--------------------------------------------------------------

             Standard Nuclear Orientation (Angstroms)
    I     Atom           X                Y                Z
 ----------------------------------------------------------------
    1      C       1.1710553536     0.2316506942     0.4217309538
    2      C       0.7464049778    -1.0117342904    -0.3583800336
    3      C      -0.5522875267    -0.8850105222    -0.8713993516
    4      C      -1.0747512292     0.1892878200     0.0802733931
    5      C      -0.4204283099     1.4898113244    -0.3927640129
    6      N       0.8532493624     1.5055845953    -0.2382344083
    7      H       2.1499731015     0.1850863719     0.8923847221
    8      H       1.4413551027    -1.8330046421    -0.5164882249
    9      H      -1.0510853524    -1.4327103841    -1.6595879261
   10      H      -2.1414760315     0.2038871002     0.3054697703
   11      H      -0.9446845478     2.2830138958    -0.9234524930
   12      C      -0.0416053343    -0.2311312752     1.1495893552
   13      H      -0.1680561074    -0.7330137054     2.0985108136
 ----------------------------------------------------------------

   22    -286.8474983916      6.18E-09 Convergence criterion met
 Total energy in the final basis set = -286.84749839

                    Orbital Energies (a.u.)
 --------------------------------------------------------------

 Alpha MOs
 -- Occupied --
-14.330 -10.235 -10.230 -10.228 -10.225 -10.221 -10.207  -0.973
 -0.850  -0.750  -0.696  -0.601  -0.585  -0.547  -0.522  -0.473
 -0.444  -0.425  -0.408  -0.378  -0.356  -0.296  -0.284  -0.278
 -0.158

 Beta MOs
 -- Occupied --
-14.329 -10.235 -10.231 -10.230 -10.222 -10.217 -10.197  -0.969
 -0.842  -0.747  -0.684  -0.597  -0.577  -0.541  -0.519  -0.464
 -0.441  -0.419  -0.406  -0.373  -0.351  -0.287  -0.275  -0.265

          Ground-State Mulliken Net Atomic Charges

     Atom                 Charge (a.u.)    Spin (a.u.)
  --------------------------------------------------------
      1 C                    -0.134907      -0.018994
      2 C                    -0.101858      -0.236691
      3 C                    -0.144073       0.720939
      4 C                     0.007146      -0.101835
      5 C                    -0.071235      -0.001711
      6 N                    -0.179297       0.062304
      7 H                     0.138674       0.004573
      8 H                     0.138986       0.010783
      9 H                     0.138542      -0.026624
     10 H                     0.129364       0.011056
     11 H                     0.132155       0.001598
     12 C                    -0.200373       0.600215
     13 H                     0.146877      -0.025614
  --------------------------------------------------------
  Sum of atomic charges =    -0.000000

                    Cartesian Multipole Moments
 -----------------------------------------------------------------
    Charge (ESU x 10^10)
                -0.0000
    Dipole Moment (Debye)
         X      -1.3771      Y      -2.0576      Z       0.7216
       Tot       2.5789
    Quadrupole Moments (Debye-Ang)
        XX     -39.4298     XY      -5.3203     YY     -44.6799
        XZ       2.1743     YZ       0.1947     ZZ     -41.2705

 Total job time:  30.52s(wall), 113.46s(cpu)
        *  Thank you very much for using Q-Chem.  Have a nice day.  *
