 Q-Chem 5.0, Q-Chem, Inc., Pleasanton, CA (2017)
 Q-Chem 5.0.2 for Intel X86 EM64T Linux

User input:
--------------------------------------------------------------
$molecule
0 2
C        1.1710553536    0.2316506942    0.4217309538
C        0.7464049778   -1.0117342904   -0.3583800336
C       -0.5522875267   -0.8850105222   -0.8713993516
C       -1.0747512292    0.1892878200    0.0802733931
C       -0.4204283099    1.4898113244   -0.3927640129
N        0.8532493624    1.5055845953   -0.2382344083
H        2.1499731015    0.1850863719    0.8923847221
H        1.4413551027   -1.8330046421   -0.5164882249
H       -1.0510853524   -1.4327103841   -1.6595879261
H       -2.1414760315    0.2038871002    0.3054697703
H       -0.9446845478    2.2830138958   -0.9234524930
C       -0.0416053343   -0.2311312752    1.1495893552
H       -0.1680561074   -0.7330137054    2.0985108136
$end

$rem
method                b3lyp
basis                 6-31+g(d,p)
unrestricted          true
symmetry              off
sym_ignore            true
incdft                false
incfock               0
scf_convergence       8
thresh                14
jobtype               ts
scf_guess             read
scf_algorithm         diis
max_scf_cycles        100
geom_opt_max_cycles   500
geom_opt_dmax         100
geom_opt_tol_gradient 10
geom_opt_hessian      read
$end

--------------------------------------------------------------

    2    -286.8474983916      9.45E-10 Convergence criterion met
 Total energy in the final basis set = -286.84749839
   13    -286.8475340297      3.41E-09 Convergence criterion met
 Total energy in the final basis set = -286.84753403
   12    -286.8475377047      6.36E-09 Convergence criterion met
 Total energy in the final basis set = -286.84753770

             Standard Nuclear Orientation (Angstroms)
    I     Atom           X                Y                Z
 ----------------------------------------------------------------
    1      C       1.1722997819     0.2314619880     0.4234871801
    2      C       0.7496865017    -1.0097548267    -0.3627750747
    3      C      -0.5492935903    -0.8794313818    -0.8805066217
    4      C      -1.0742266605     0.1906129619     0.0749795455
    5      C      -0.4215763670     1.4937321563    -0.3917190604
    6      N       0.8529832489     1.5070086776    -0.2304666120
    7      H       2.1498651423     0.1827954822     0.8943296881
    8      H       1.4430258308    -1.8313755913    -0.5196176095
    9      H      -1.0605115782    -1.4506138143    -1.6427081574
   10      H      -2.1406528892     0.2036497210     0.2976581923
   11      H      -0.9436859199     2.2897456886    -0.9183415331
   12      C      -0.0409892156    -0.2400118324     1.1431525371
   13      H      -0.1692608261    -0.7261022465     2.1001800833
 ----------------------------------------------------------------

    9    -286.8475377375      5.26E-09 Convergence criterion met
 Total energy in the final basis set = -286.84753774
 Final energy is   -286.847537737455
 **  OPTIMIZATION CONVERGED  **

                    Orbital Energies (a.u.)
 --------------------------------------------------------------

 Alpha MOs
 -- Occupied --
-14.330 -10.235 -10.230 -10.229 -10.226 -10.221 -10.206  -0.972
 -0.849  -0.751  -0.696  -0.602  -0.585  -0.548  -0.522  -0.472
 -0.444  -0.424  -0.409  -0.378  -0.356  -0.296  -0.284  -0.277
 -0.157

 Beta MOs
 -- Occupied --
-14.329 -10.235 -10.231 -10.230 -10.222 -10.217 -10.197  -0.968
 -0.842  -0.747  -0.684  -0.598  -0.577  -0.541  -0.519  -0.463
 -0.441  -0.419  -0.406  -0.373  -0.351  -0.287  -0.275  -0.265

          Ground-State Mulliken Net Atomic Charges

     Atom                 Charge (a.u.)    Spin (a.u.)
  --------------------------------------------------------
      1 C                    -0.133255      -0.020813
      2 C                    -0.104233      -0.233531
      3 C                    -0.139879       0.728410
      4 C                     0.001918      -0.101873
      5 C                    -0.069985      -0.002151
      6 N                    -0.179931       0.062225
      7 H                     0.138943       0.004338
      8 H                     0.139217       0.010319
      9 H                     0.138990      -0.028730
     10 H                     0.129079       0.010623
     11 H                     0.132681       0.001552
     12 C                    -0.199486       0.594040
     13 H                     0.145943      -0.024409
  --------------------------------------------------------
  Sum of atomic charges =     0.000000

                    Cartesian Multipole Moments
 -----------------------------------------------------------------
    Charge (ESU x 10^10)
                 0.0000
    Dipole Moment (Debye)
         X      -1.3852      Y      -2.0677      Z       0.7526
       Tot       2.6001
    Quadrupole Moments (Debye-Ang)
        XX     -39.3848     XY      -5.3177     YY     -44.6063
        XZ       2.1581     YZ       0.2140     ZZ     -41.3547

 Total job time:  76.17s(wall), 260.26s(cpu)
        *  Thank you very much for using Q-Chem.  Have a nice day.  *
