 Q-Chem 5.0, Q-Chem, Inc., Pleasanton, CA (2017)
 Q-Chem 5.0.2 for Intel X86 EM64T Linux

User input:
--------------------------------------------------------------
$molecule
0 2
C        1.3508310446    0.3425182941    0.2245868273
C        0.7876249647   -0.9055224206   -0.2863464906
C       -0.5186769396   -0.8373084709   -0.8234941720
C       -1.0704899465    0.2435019489    0.0581095270
C       -0.4073055694    1.5410387565   -0.3787639528
N        0.8772628773    1.5512413055   -0.2313299856
H        2.3195977034    0.3360888111    0.7147486835
H        1.4119930239   -1.8020257150   -0.2875602812
H       -1.0629061242   -1.6620716303   -1.2655426713
H       -2.1545702572    0.3036054138    0.1976181895
H       -0.9319215325    2.3800890487   -0.8267526571
C       -0.1614801760   -0.3149532393    1.1758656739
H       -0.4722956096   -1.2144851201    1.7165138671
$end

$rem
method                b3lyp
basis                 6-31g(d)
unrestricted          true
symmetry              off
sym_ignore            true
incdft                false
incfock               0
scf_convergence       8
thresh                14
jobtype               ts
scf_guess             read
scf_algorithm         diis
max_scf_cycles        100
geom_opt_max_cycles   500
geom_opt_dmax         100
geom_opt_tol_gradient 10
geom_opt_hessian      read
$end

--------------------------------------------------------------

    2    -286.7822226047      3.90E-10 Convergence criterion met
 Total energy in the final basis set = -286.78222260
   16    -286.7826553574      2.67E-09 Convergence criterion met
 Total energy in the final basis set = -286.78265536
   16    -286.7830545254      2.83E-09 Convergence criterion met
 Total energy in the final basis set = -286.78305453
   16    -286.7831243588      3.53E-09 Convergence criterion met
 Total energy in the final basis set = -286.78312436
   16    -286.7831548373      2.83E-09 Convergence criterion met
 Total energy in the final basis set = -286.78315484
   16    -286.7832336406      2.65E-09 Convergence criterion met
 Total energy in the final basis set = -286.78323364
   16    -286.7833136937      2.82E-09 Convergence criterion met
 Total energy in the final basis set = -286.78331369
   16    -286.7833589361      3.36E-09 Convergence criterion met
   12    -286.8244962862      6.58E-09 Convergence criterion met
 Total energy in the final basis set = -286.82449629
   13    -286.8244827042      3.50E-09 Convergence criterion met
 Total energy in the final basis set = -286.82448270
   12    -286.8244964499      7.96E-09 Convergence criterion met
 Total energy in the final basis set = -286.82449645
   13    -286.8244855119      3.67E-09 Convergence criterion met
 Total energy in the final basis set = -286.82448551
   13    -286.8244965693      2.95E-09 Convergence criterion met
 Total energy in the final basis set = -286.82449657
    8    -286.8244965576      9.62E-09 Convergence criterion met
 Total energy in the final basis set = -286.82449656

             Standard Nuclear Orientation (Angstroms)
    I     Atom           X                Y                Z
 ----------------------------------------------------------------
    1      C       1.1710553536     0.2316506942     0.4217309538
    2      C       0.7464049778    -1.0117342904    -0.3583800336
    3      C      -0.5522875267    -0.8850105222    -0.8713993516
    4      C      -1.0747512292     0.1892878200     0.0802733931
    5      C      -0.4204283099     1.4898113244    -0.3927640129
    6      N       0.8532493624     1.5055845953    -0.2382344083
    7      H       2.1499731015     0.1850863719     0.8923847221
    8      H       1.4413551027    -1.8330046421    -0.5164882249
    9      H      -1.0510853524    -1.4327103841    -1.6595879261
   10      H      -2.1414760315     0.2038871002     0.3054697703
   11      H      -0.9446845478     2.2830138958    -0.9234524930
   12      C      -0.0416053343    -0.2311312752     1.1495893552
   13      H      -0.1680561074    -0.7330137054     2.0985108136
 ----------------------------------------------------------------

    8    -286.8244965767      6.48E-09 Convergence criterion met
 Total energy in the final basis set = -286.82449658
 Final energy is   -286.824496576744
 **  OPTIMIZATION CONVERGED  **

                    Orbital Energies (a.u.)
 --------------------------------------------------------------

 Alpha MOs
 -- Occupied --
-14.314 -10.224 -10.218 -10.216 -10.212 -10.209 -10.193  -0.959
 -0.836  -0.739  -0.685  -0.590  -0.575  -0.538  -0.513  -0.461
 -0.433  -0.414  -0.398  -0.367  -0.345  -0.284  -0.271  -0.264
 -0.145

 Beta MOs
 -- Occupied --
-14.313 -10.224 -10.219 -10.218 -10.210 -10.204 -10.184  -0.955
 -0.828  -0.735  -0.673  -0.586  -0.566  -0.531  -0.510  -0.453
 -0.429  -0.408  -0.396  -0.362  -0.340  -0.274  -0.261  -0.251

          Ground-State Mulliken Net Atomic Charges

     Atom                 Charge (a.u.)    Spin (a.u.)
  --------------------------------------------------------
      1 C                    -0.028217       0.004263
      2 C                    -0.132254      -0.216207
      3 C                    -0.081542       0.664385
      4 C                    -0.258432      -0.069113
      5 C                     0.091754       0.008721
      6 N                    -0.338855       0.064118
      7 H                     0.146688       0.004290
      8 H                     0.147971       0.011870
      9 H                     0.141922      -0.026841
     10 H                     0.137571       0.010556
     11 H                     0.143589       0.001582
     12 C                    -0.128701       0.570220
     13 H                     0.158504      -0.027843
  --------------------------------------------------------
  Sum of atomic charges =     0.000000

                    Cartesian Multipole Moments
 -----------------------------------------------------------------
    Charge (ESU x 10^10)
                 0.0000
    Dipole Moment (Debye)
         X      -1.2572      Y      -1.9209      Z       0.6416
       Tot       2.3837
    Quadrupole Moments (Debye-Ang)
        XX     -38.5754     XY      -4.7750     YY     -42.8902
        XZ       1.9980     YZ       0.2218     ZZ     -39.5015

 Total job time:  1879.20s(wall), 6068.37s(cpu)
        *  Thank you very much for using Q-Chem.  Have a nice day.  *
