 Q-Chem 5.0, Q-Chem, Inc., Pleasanton, CA (2017)
 Q-Chem 5.0.2 for Intel X86 EM64T Linux

User input:
--------------------------------------------------------------
$molecule
0 2
C        1.1710553536    0.2316506942    0.4217309538
C        0.7464049778   -1.0117342904   -0.3583800336
C       -0.5522875267   -0.8850105222   -0.8713993516
C       -1.0747512292    0.1892878200    0.0802733931
C       -0.4204283099    1.4898113244   -0.3927640129
N        0.8532493624    1.5055845953   -0.2382344083
H        2.1499731015    0.1850863719    0.8923847221
H        1.4413551027   -1.8330046421   -0.5164882249
H       -1.0510853524   -1.4327103841   -1.6595879261
H       -2.1414760315    0.2038871002    0.3054697703
H       -0.9446845478    2.2830138958   -0.9234524930
C       -0.0416053343   -0.2311312752    1.1495893552
H       -0.1680561074   -0.7330137054    2.0985108136
$end

$rem
method                b3lyp
basis                 6-31+g(d,p)
unrestricted          true
symmetry              off
sym_ignore            true
incdft                false
incfock               0
scf_convergence       8
thresh                14
jobtype               freq
scf_guess             read
scf_algorithm         diis
max_scf_cycles        100
$end

--------------------------------------------------------------

             Standard Nuclear Orientation (Angstroms)
    I     Atom           X                Y                Z
 ----------------------------------------------------------------
    1      C       1.1710553536     0.2316506942     0.4217309538
    2      C       0.7464049778    -1.0117342904    -0.3583800336
    3      C      -0.5522875267    -0.8850105222    -0.8713993516
    4      C      -1.0747512292     0.1892878200     0.0802733931
    5      C      -0.4204283099     1.4898113244    -0.3927640129
    6      N       0.8532493624     1.5055845953    -0.2382344083
    7      H       2.1499731015     0.1850863719     0.8923847221
    8      H       1.4413551027    -1.8330046421    -0.5164882249
    9      H      -1.0510853524    -1.4327103841    -1.6595879261
   10      H      -2.1414760315     0.2038871002     0.3054697703
   11      H      -0.9446845478     2.2830138958    -0.9234524930
   12      C      -0.0416053343    -0.2311312752     1.1495893552
   13      H      -0.1680561074    -0.7330137054     2.0985108136
 ----------------------------------------------------------------

    2    -286.8474983915      2.01E-09 Convergence criterion met
 Total energy in the final basis set = -286.84749839

                    Orbital Energies (a.u.)
 --------------------------------------------------------------

 Alpha MOs
 -- Occupied --
-14.330 -10.235 -10.230 -10.228 -10.225 -10.221 -10.207  -0.973
 -0.850  -0.750  -0.696  -0.601  -0.585  -0.547  -0.522  -0.473
 -0.444  -0.425  -0.408  -0.378  -0.356  -0.296  -0.284  -0.278
 -0.158

 Beta MOs
 -- Occupied --
-14.329 -10.235 -10.231 -10.230 -10.222 -10.217 -10.197  -0.969
 -0.842  -0.747  -0.684  -0.597  -0.577  -0.541  -0.519  -0.464
 -0.441  -0.419  -0.406  -0.373  -0.351  -0.287  -0.275  -0.265

          Ground-State Mulliken Net Atomic Charges

     Atom                 Charge (a.u.)    Spin (a.u.)
  --------------------------------------------------------
      1 C                    -0.134907      -0.018993
      2 C                    -0.101858      -0.236693
      3 C                    -0.144073       0.720942
      4 C                     0.007146      -0.101836
      5 C                    -0.071235      -0.001702
      6 N                    -0.179297       0.062296
      7 H                     0.138674       0.004573
      8 H                     0.138986       0.010784
      9 H                     0.138542      -0.026624
     10 H                     0.129364       0.011056
     11 H                     0.132155       0.001597
     12 C                    -0.200373       0.600215
     13 H                     0.146877      -0.025614
  --------------------------------------------------------
  Sum of atomic charges =    -0.000000

                    Cartesian Multipole Moments
 -----------------------------------------------------------------
    Charge (ESU x 10^10)
                -0.0000
    Dipole Moment (Debye)
         X      -1.3771      Y      -2.0576      Z       0.7216
       Tot       2.5789
    Quadrupole Moments (Debye-Ang)
        XX     -39.4298     XY      -5.3203     YY     -44.6799
        XZ       2.1743     YZ       0.1947     ZZ     -41.2705

 Frequency:      -664.75                 361.01                 396.01
 Force Cnst:      1.3456                 0.0927                 0.1075
 Red. Mass:       5.1685                 1.2068                 1.1633
 IR Intens:       37.493                 14.537                 30.839
 Frequency:       444.81                 481.33                 605.14
 Force Cnst:      0.3538                 0.5531                 1.0007
 Red. Mass:       3.0354                 4.0523                 4.6382
 IR Intens:       13.539                  7.827                 15.747
 Frequency:       741.38                 784.54                 830.19
 Force Cnst:      1.9599                 2.6112                 0.8800
 Red. Mass:       6.0519                 7.2005                 2.1670
 IR Intens:        3.207                  5.222                 18.265
 Frequency:       852.70                 883.42                 895.19
 Force Cnst:      1.7951                 1.0382                 0.6948
 Red. Mass:       4.1903                 2.2579                 1.4715
 IR Intens:        9.468                  7.297                  2.455
 Frequency:       914.25                 928.38                 958.35
 Force Cnst:      1.0108                 0.8053                 1.0668
 Red. Mass:       2.0525                 1.5858                 1.9715
 IR Intens:        0.496                 21.379                  2.622
 Frequency:       973.54                1027.18                1086.33
 Force Cnst:      1.1537                 1.2955                 1.2078
 Red. Mass:       2.0660                 2.0840                 1.7371
 IR Intens:        2.579                  3.543                  5.103
 Frequency:      1143.99                1178.44                1215.45
 Force Cnst:      1.2902                 1.4788                 1.3356
 Red. Mass:       1.6733                 1.8073                 1.5344
 IR Intens:       15.343                  1.781                  5.919
 Frequency:      1244.06                1275.03                1320.39
 Force Cnst:      1.4536                 1.2088                 1.5789
 Red. Mass:       1.5941                 1.2620                 1.5370
 IR Intens:        6.681                  1.227                  3.313
 Frequency:      1322.48                1410.66                1634.57
 Force Cnst:      1.7417                 3.2469                11.9164
 Red. Mass:       1.6902                 2.7693                 7.5699
 IR Intens:       18.656                  1.736                 44.565
 Frequency:      3138.51                3174.30                3176.08
 Force Cnst:      6.3264                 6.4720                 6.5041
 Red. Mass:       1.0901                 1.0902                 1.0943
 IR Intens:       17.649                 13.632                 15.667
 Frequency:      3185.24                3251.20                3266.40
 Force Cnst:      6.5330                 6.8243                 6.8871
 Red. Mass:       1.0929                 1.0958                 1.0956
 IR Intens:       19.462                  1.896                  0.416

 STANDARD THERMODYNAMIC QUANTITIES AT   298.15 K  AND     1.00 ATM

   This Molecule has  1 Imaginary Frequencies
   Zero point vibrational energy:       63.045 kcal/mol

   Atom    1 Element C  Has Mass   12.00000
   Atom    2 Element C  Has Mass   12.00000
   Atom    3 Element C  Has Mass   12.00000
   Atom    4 Element C  Has Mass   12.00000
   Atom    5 Element C  Has Mass   12.00000
   Atom    6 Element N  Has Mass   14.00307
   Atom    7 Element H  Has Mass    1.00783
   Atom    8 Element H  Has Mass    1.00783
   Atom    9 Element H  Has Mass    1.00783
   Atom   10 Element H  Has Mass    1.00783
   Atom   11 Element H  Has Mass    1.00783
   Atom   12 Element C  Has Mass   12.00000
   Atom   13 Element H  Has Mass    1.00783
   Molecular Mass:    92.050050 amu
   Principal axes and moments of inertia in amu*Bohr^2:
                             1           2           3
    Eigenvalues --      376.95615   456.81179   565.61607
          X               0.14037     0.93990    -0.31127
          Y               0.98968    -0.14229     0.01666
          Z               0.02863     0.31040     0.95018
   Rotational Symmetry Number is   1
   The Molecule is an Asymmetric Top
   Translational Enthalpy:        0.889 kcal/mol
   Rotational Enthalpy:           0.889 kcal/mol
   Vibrational Enthalpy:         64.368 kcal/mol
   gas constant (RT):             0.592 kcal/mol
   Translational Entropy:        39.471  cal/mol.K
   Rotational Entropy:           26.079  cal/mol.K
   Vibrational Entropy:           6.075  cal/mol.K

   Total Enthalpy:               66.738 kcal/mol
   Total Entropy:                71.625  cal/mol.K

 Total job time:  566.87s(wall), 559.44s(cpu)
        *  Thank you very much for using Q-Chem.  Have a nice day.  *
