 Q-Chem 5.0, Q-Chem, Inc., Pleasanton, CA (2017)
 Q-Chem 5.0.2 for Intel X86 EM64T Linux

User input:
--------------------------------------------------------------
$molecule
0 2
C        1.3508310446    0.3425182941    0.2245868273
C        0.7876249647   -0.9055224206   -0.2863464906
C       -0.5186769396   -0.8373084709   -0.8234941720
C       -1.0704899465    0.2435019489    0.0581095270
C       -0.4073055694    1.5410387565   -0.3787639528
N        0.8772628773    1.5512413055   -0.2313299856
H        2.3195977034    0.3360888111    0.7147486835
H        1.4119930239   -1.8020257150   -0.2875602812
H       -1.0629061242   -1.6620716303   -1.2655426713
H       -2.1545702572    0.3036054138    0.1976181895
H       -0.9319215325    2.3800890487   -0.8267526571
C       -0.1614801760   -0.3149532393    1.1758656739
H       -0.4722956096   -1.2144851201    1.7165138671
$end

$rem
method                b3lyp
basis                 6-31g(d)
unrestricted          true
symmetry              off
sym_ignore            true
incdft                false
incfock               0
scf_convergence       8
thresh                14
jobtype               sp
scf_guess             core
scf_guess_mix         5
scf_algorithm         diis
max_scf_cycles        100
$end

--------------------------------------------------------------

             Standard Nuclear Orientation (Angstroms)
    I     Atom           X                Y                Z
 ----------------------------------------------------------------
    1      C       1.3508310446     0.3425182941     0.2245868273
    2      C       0.7876249647    -0.9055224206    -0.2863464906
    3      C      -0.5186769396    -0.8373084709    -0.8234941720
    4      C      -1.0704899465     0.2435019489     0.0581095270
    5      C      -0.4073055694     1.5410387565    -0.3787639528
    6      N       0.8772628773     1.5512413055    -0.2313299856
    7      H       2.3195977034     0.3360888111     0.7147486835
    8      H       1.4119930239    -1.8020257150    -0.2875602812
    9      H      -1.0629061242    -1.6620716303    -1.2655426713
   10      H      -2.1545702572     0.3036054138     0.1976181895
   11      H      -0.9319215325     2.3800890487    -0.8267526571
   12      C      -0.1614801760    -0.3149532393     1.1758656739
   13      H      -0.4722956096    -1.2144851201     1.7165138671
 ----------------------------------------------------------------

   24    -286.7822226047      2.77E-09 Convergence criterion met
 Total energy in the final basis set = -286.78222260

                    Orbital Energies (a.u.)
 --------------------------------------------------------------

 Alpha MOs
 -- Occupied --
-14.328 -10.251 -10.229 -10.221 -10.219 -10.208 -10.189  -0.964
 -0.847  -0.752  -0.656  -0.615  -0.599  -0.537  -0.496  -0.450
 -0.444  -0.429  -0.404  -0.369  -0.350  -0.286  -0.269  -0.263
 -0.132

 Beta MOs
 -- Occupied --
-14.327 -10.251 -10.229 -10.223 -10.210 -10.208 -10.181  -0.962
 -0.838  -0.751  -0.645  -0.608  -0.590  -0.533  -0.495  -0.447
 -0.439  -0.422  -0.401  -0.363  -0.345  -0.278  -0.268  -0.229

          Ground-State Mulliken Net Atomic Charges

     Atom                 Charge (a.u.)    Spin (a.u.)
  --------------------------------------------------------
      1 C                     0.030317      -0.024604
      2 C                    -0.160770      -0.115289
      3 C                    -0.103122       0.583284
      4 C                    -0.269614      -0.032502
      5 C                     0.105034       0.027942
      6 N                    -0.340771       0.016128
      7 H                     0.163586       0.000792
      8 H                     0.151520       0.005422
      9 H                     0.139128      -0.028617
     10 H                     0.141024       0.003669
     11 H                     0.151417      -0.000149
     12 C                    -0.165296       0.581975
     13 H                     0.157547      -0.018052
  --------------------------------------------------------
  Sum of atomic charges =    -0.000000

                    Cartesian Multipole Moments
 -----------------------------------------------------------------
    Charge (ESU x 10^10)
                -0.0000
    Dipole Moment (Debye)
         X      -0.9060      Y      -1.9900      Z       0.0772
       Tot       2.1879
    Quadrupole Moments (Debye-Ang)
        XX     -37.1495     XY      -3.9492     YY     -40.8261
        XZ       1.3148     YZ      -0.8215     ZZ     -43.8378

 Total job time:  19.13s(wall), 60.77s(cpu)
        *  Thank you very much for using Q-Chem.  Have a nice day.  *
