 Q-Chem 5.0, Q-Chem, Inc., Pleasanton, CA (2017)
 Q-Chem 5.0.2 for Intel X86 EM64T Linux

User input:
--------------------------------------------------------------
$molecule
0 2
C        1.3508310446    0.3425182941    0.2245868273
C        0.7876249647   -0.9055224206   -0.2863464906
C       -0.5186769396   -0.8373084709   -0.8234941720
C       -1.0704899465    0.2435019489    0.0581095270
C       -0.4073055694    1.5410387565   -0.3787639528
N        0.8772628773    1.5512413055   -0.2313299856
H        2.3195977034    0.3360888111    0.7147486835
H        1.4119930239   -1.8020257150   -0.2875602812
H       -1.0629061242   -1.6620716303   -1.2655426713
H       -2.1545702572    0.3036054138    0.1976181895
H       -0.9319215325    2.3800890487   -0.8267526571
C       -0.1614801760   -0.3149532393    1.1758656739
H       -0.4722956096   -1.2144851201    1.7165138671
$end

$rem
method                b3lyp
basis                 6-31g(d)
unrestricted          true
symmetry              off
sym_ignore            true
incdft                false
incfock               0
scf_convergence       8
thresh                14
jobtype               freq
scf_guess             read
scf_algorithm         diis
max_scf_cycles        100
$end

--------------------------------------------------------------

             Standard Nuclear Orientation (Angstroms)
    I     Atom           X                Y                Z
 ----------------------------------------------------------------
    1      C       1.3508310446     0.3425182941     0.2245868273
    2      C       0.7876249647    -0.9055224206    -0.2863464906
    3      C      -0.5186769396    -0.8373084709    -0.8234941720
    4      C      -1.0704899465     0.2435019489     0.0581095270
    5      C      -0.4073055694     1.5410387565    -0.3787639528
    6      N       0.8772628773     1.5512413055    -0.2313299856
    7      H       2.3195977034     0.3360888111     0.7147486835
    8      H       1.4119930239    -1.8020257150    -0.2875602812
    9      H      -1.0629061242    -1.6620716303    -1.2655426713
   10      H      -2.1545702572     0.3036054138     0.1976181895
   11      H      -0.9319215325     2.3800890487    -0.8267526571
   12      C      -0.1614801760    -0.3149532393     1.1758656739
   13      H      -0.4722956096    -1.2144851201     1.7165138671
 ----------------------------------------------------------------

    2    -286.7822226048      7.53E-10 Convergence criterion met
 Total energy in the final basis set = -286.78222260

                    Orbital Energies (a.u.)
 --------------------------------------------------------------

 Alpha MOs
 -- Occupied --
-14.328 -10.251 -10.229 -10.221 -10.219 -10.208 -10.189  -0.964
 -0.847  -0.752  -0.656  -0.615  -0.599  -0.537  -0.496  -0.450
 -0.444  -0.429  -0.404  -0.369  -0.350  -0.286  -0.269  -0.263
 -0.132

 Beta MOs
 -- Occupied --
-14.327 -10.251 -10.229 -10.223 -10.210 -10.208 -10.181  -0.962
 -0.838  -0.751  -0.645  -0.608  -0.590  -0.533  -0.495  -0.447
 -0.439  -0.422  -0.401  -0.363  -0.345  -0.278  -0.268  -0.229

          Ground-State Mulliken Net Atomic Charges

     Atom                 Charge (a.u.)    Spin (a.u.)
  --------------------------------------------------------
      1 C                     0.030317      -0.024605
      2 C                    -0.160770      -0.115290
      3 C                    -0.103122       0.583284
      4 C                    -0.269614      -0.032502
      5 C                     0.105034       0.027940
      6 N                    -0.340771       0.016130
      7 H                     0.163586       0.000792
      8 H                     0.151520       0.005422
      9 H                     0.139128      -0.028617
     10 H                     0.141024       0.003669
     11 H                     0.151417      -0.000149
     12 C                    -0.165296       0.581976
     13 H                     0.157547      -0.018052
  --------------------------------------------------------
  Sum of atomic charges =    -0.000000

                    Cartesian Multipole Moments
 -----------------------------------------------------------------
    Charge (ESU x 10^10)
                -0.0000
    Dipole Moment (Debye)
         X      -0.9060      Y      -1.9900      Z       0.0772
       Tot       2.1879
    Quadrupole Moments (Debye-Ang)
        XX     -37.1495     XY      -3.9492     YY     -40.8261
        XZ       1.3148     YZ      -0.8215     ZZ     -43.8378

 Frequency:      -590.48                -418.13                 336.82
 Force Cnst:      0.8276                 0.6398                 0.0779
 Red. Mass:       4.0288                 6.2109                 1.1656
 IR Intens:       71.928                  8.909                 37.857
 Frequency:       434.32                 492.25                 608.61
 Force Cnst:      0.3099                 0.8736                 0.9595
 Red. Mass:       2.7881                 6.1193                 4.3965
 IR Intens:        4.334                 10.471                  0.331
 Frequency:       707.02                 730.85                 765.38
 Force Cnst:      0.9840                 1.9976                 0.5153
 Red. Mass:       3.3410                 6.3474                 1.4931
 IR Intens:       14.341                  7.348                 14.733
 Frequency:       844.86                 858.34                 915.23
 Force Cnst:      0.6287                 0.8828                 0.9901
 Red. Mass:       1.4950                 2.0337                 2.0063
 IR Intens:        6.750                 14.146                 19.969
 Frequency:       935.85                 947.38                 997.11
 Force Cnst:      1.0886                 0.8637                 0.9522
 Red. Mass:       2.1097                 1.6332                 1.6255
 IR Intens:       11.008                 24.068                 24.253
 Frequency:      1021.14                1040.01                1079.45
 Force Cnst:      1.2161                 1.4652                 0.8759
 Red. Mass:       1.9795                 2.2992                 1.2758
 IR Intens:        3.243                  0.085                  9.145
 Frequency:      1104.84                1190.75                1204.31
 Force Cnst:      1.2387                 1.5764                 1.4079
 Red. Mass:       1.7223                 1.8871                 1.6476
 IR Intens:        5.309                  7.047                  2.190
 Frequency:      1264.12                1315.67                1348.55
 Force Cnst:      1.7428                 1.2845                 1.8617
 Red. Mass:       1.8511                 1.2595                 1.7375
 IR Intens:       22.029                  0.695                 13.737
 Frequency:      1391.82                1459.18                1608.14
 Force Cnst:      2.4202                 2.8164                 9.9617
 Red. Mass:       2.1205                 2.2451                 6.5379
 IR Intens:        4.810                  4.897                 45.837
 Frequency:      3105.92                3127.45                3139.71
 Force Cnst:      6.1863                 6.2817                 6.3367
 Red. Mass:       1.0884                 1.0900                 1.0910
 IR Intens:       21.759                 11.344                 16.893
 Frequency:      3214.06                3221.91                3249.23
 Force Cnst:      6.6507                 6.6827                 6.8027
 Red. Mass:       1.0927                 1.0926                 1.0936
 IR Intens:       17.431                  6.942                  1.744

 STANDARD THERMODYNAMIC QUANTITIES AT   298.15 K  AND     1.00 ATM

   This Molecule has  2 Imaginary Frequencies
   Zero point vibrational energy:       62.416 kcal/mol

   Atom    1 Element C  Has Mass   12.00000
   Atom    2 Element C  Has Mass   12.00000
   Atom    3 Element C  Has Mass   12.00000
   Atom    4 Element C  Has Mass   12.00000
   Atom    5 Element C  Has Mass   12.00000
   Atom    6 Element N  Has Mass   14.00307
   Atom    7 Element H  Has Mass    1.00783
   Atom    8 Element H  Has Mass    1.00783
   Atom    9 Element H  Has Mass    1.00783
   Atom   10 Element H  Has Mass    1.00783
   Atom   11 Element H  Has Mass    1.00783
   Atom   12 Element C  Has Mass   12.00000
   Atom   13 Element H  Has Mass    1.00783
   Molecular Mass:    92.050050 amu
   Principal axes and moments of inertia in amu*Bohr^2:
                             1           2           3
    Eigenvalues --      375.04561   457.42074   592.35980
          X               0.26719     0.95464    -0.13145
          Y               0.96236    -0.25729     0.08760
          Z              -0.04981     0.14991     0.98744
   Rotational Symmetry Number is   1
   The Molecule is an Asymmetric Top
   Translational Enthalpy:        0.889 kcal/mol
   Rotational Enthalpy:           0.889 kcal/mol
   Vibrational Enthalpy:         63.575 kcal/mol
   gas constant (RT):             0.592 kcal/mol
   Translational Entropy:        39.471  cal/mol.K
   Rotational Entropy:           26.121  cal/mol.K
   Vibrational Entropy:           5.290  cal/mol.K

   Total Enthalpy:               65.945 kcal/mol
   Total Entropy:                70.883  cal/mol.K

 Total job time:  269.76s(wall), 263.32s(cpu)
        *  Thank you very much for using Q-Chem.  Have a nice day.  *
