 Q-Chem 5.0, Q-Chem, Inc., Pleasanton, CA (2017)
 Q-Chem 5.0.2 for Intel X86 EM64T Linux

User input:
--------------------------------------------------------------
$molecule
0 2
C        0.6676558774   -0.0154210651    0.2559371522
C        0.9611103765   -1.1854461844   -0.6652675383
C        0.2326556326   -2.2709381243   -0.7757467511
C       -1.2866670197    1.1268138950    0.6545475113
C       -0.3760067462    1.8659578056   -0.2321391462
N        0.7310179234    1.2550971501   -0.4888873699
H        1.4747079013    0.0313192104    1.0083320433
H        1.8685615471   -1.0583370390   -1.2671433870
H        0.2675449070   -3.1914355799   -1.3447962848
H       -2.2616275649    1.4654544141    0.9866512757
H       -0.5833282452    2.8485032797   -0.6546456767
C       -0.6685379120   -0.0308549829    0.9496922397
H       -1.0270866775   -0.8407127794    1.5734659317
$end

$rem
method                b3lyp
basis                 6-31g(d)
unrestricted          true
symmetry              off
sym_ignore            true
incdft                false
incfock               0
scf_convergence       8
thresh                14
jobtype               opt
scf_guess             read
scf_algorithm         diis
max_scf_cycles        100
geom_opt_tol_gradient 600
geom_opt_tol_displacement 2400
geom_opt_tol_energy   200
geom_opt_max_cycles   100
$end

--------------------------------------------------------------

    2    -286.8505634645      1.84E-09 Convergence criterion met
 Total energy in the final basis set = -286.85056346

             Standard Nuclear Orientation (Angstroms)
    I     Atom           X                Y                Z
 ----------------------------------------------------------------
    1      C       0.6687005200    -0.0150027619     0.2562028200
    2      C       0.9621686472    -1.1852267401    -0.6645648379
    3      C       0.2319936149    -2.2696796050    -0.7753597063
    4      C      -1.2867220745     1.1258617978     0.6541763104
    5      C      -0.3759849902     1.8651877205    -0.2322227826
    6      N       0.7311918567     1.2551277619    -0.4894655153
    7      H       1.4748549072     0.0324578117     1.0096102254
    8      H       1.8688055392    -1.0582515339    -1.2677769006
    9      H       0.2647644191    -3.1902324870    -1.3444230352
   10      H      -2.2619177787     1.4648255888     0.9853447704
   11      H      -0.5835525851     2.8478594792    -0.6543046683
   12      C      -0.6677824046    -0.0313823431     0.9497703802
   13      H      -1.0265196713    -0.8415446888     1.5730129398
 ----------------------------------------------------------------

   11    -286.8505646093      4.23E-09 Convergence criterion met
 Total energy in the final basis set = -286.85056461
 Final energy is   -286.850564609294
 **  OPTIMIZATION CONVERGED  **

                    Orbital Energies (a.u.)
 --------------------------------------------------------------

 Alpha MOs
 -- Occupied --
-14.321 -10.227 -10.224 -10.209 -10.202 -10.201 -10.196  -0.943
 -0.790  -0.765  -0.704  -0.595  -0.556  -0.538  -0.507  -0.468
 -0.446  -0.405  -0.398  -0.370  -0.326  -0.274  -0.265  -0.254
 -0.234

 Beta MOs
 -- Occupied --
-14.321 -10.226 -10.224 -10.204 -10.201 -10.196 -10.193  -0.943
 -0.782  -0.764  -0.693  -0.587  -0.555  -0.529  -0.504  -0.457
 -0.441  -0.403  -0.397  -0.365  -0.324  -0.268  -0.261  -0.252

          Ground-State Mulliken Net Atomic Charges

     Atom                 Charge (a.u.)    Spin (a.u.)
  --------------------------------------------------------
      1 C                    -0.068881       0.042914
      2 C                    -0.103416      -0.167520
      3 C                    -0.198573       1.040386
      4 C                    -0.142671       0.000222
      5 C                     0.055759       0.004843
      6 N                    -0.377766      -0.003560
      7 H                     0.181144      -0.004370
      8 H                     0.164025       0.078690
      9 H                     0.163969       0.004920
     10 H                     0.140175       0.000140
     11 H                     0.143536      -0.000138
     12 C                    -0.110583       0.003000
     13 H                     0.153282       0.000473
  --------------------------------------------------------
  Sum of atomic charges =    -0.000000

                    Cartesian Multipole Moments
 -----------------------------------------------------------------
    Charge (ESU x 10^10)
                -0.0000
    Dipole Moment (Debye)
         X      -0.9373      Y      -0.6831      Z       0.9774
       Tot       1.5168
    Quadrupole Moments (Debye-Ang)
        XX     -39.5372     XY      -4.2479     YY     -37.6174
        XZ      -0.3505     YZ       1.9628     ZZ     -40.5700

 Total job time:  19.60s(wall), 50.20s(cpu)
        *  Thank you very much for using Q-Chem.  Have a nice day.  *
