 Q-Chem 5.0, Q-Chem, Inc., Pleasanton, CA (2017)
 Q-Chem 5.0.2 for Intel X86 EM64T Linux

User input:
--------------------------------------------------------------
$molecule
0 2
C        1.6724666002    0.2714977792   -2.2875031831
C        1.2259645833   -1.0686676246   -2.2454874339
C       -0.1041993824   -1.2614514482   -2.3964946520
C       -1.4259825743    0.4375325262   -0.7782271405
C       -0.8716363330    0.9961133296   -2.0347408725
N        0.8894013276    1.4096363791   -2.7601400372
H        2.7250213295    0.1963304939   -2.0257696814
H        1.8170177249   -1.7269903515   -1.6393003330
H       -0.6258770018   -1.7043079812   -3.3188764320
H       -1.4744974551    0.9328548670    0.2341907790
H       -1.5734813856    1.5042300734   -2.6584302618
C       -1.4768361376   -0.8649699484   -1.0867823532
H       -1.8523492621   -1.6609509111   -0.3408858609
$end

$rem
method                b3lyp
basis                 6-31g(d)
unrestricted          true
symmetry              off
sym_ignore            true
incdft                false
incfock               0
scf_convergence       8
thresh                14
jobtype               opt
scf_guess             read
scf_algorithm         diis
max_scf_cycles        100
geom_opt_tol_gradient 600
geom_opt_tol_displacement 2400
geom_opt_tol_energy   200
geom_opt_max_cycles   100
$end

--------------------------------------------------------------

    3    -286.6016109429      2.03E-09 Convergence criterion met
 Total energy in the final basis set = -286.60161094
   20    -286.6560897366      4.53E-09 Convergence criterion met
 Total energy in the final basis set = -286.65608974
   19    -286.7057221343      9.68E-09 Convergence criterion met
 Total energy in the final basis set = -286.70572213
   18    -286.7500521831      8.13E-09 Convergence criterion met
 Total energy in the final basis set = -286.75005218
   18    -286.7877147372      2.97E-09 Convergence criterion met
 Total energy in the final basis set = -286.78771474
   16    -286.8177909968      7.34E-09 Convergence criterion met
 Total energy in the final basis set = -286.81779100
   15    -286.8395303419      8.50E-09 Convergence criterion met
 Total energy in the final basis set = -286.83953034
   15    -286.8535901546      7.11E-09 Convergence criterion met
   13    -286.8738409982      8.26E-09 Convergence criterion met
 Total energy in the final basis set = -286.87384100
   13    -286.8754236956      5.44E-09 Convergence criterion met
 Total energy in the final basis set = -286.87542370
   13    -286.8754577478      3.49E-09 Convergence criterion met
 Total energy in the final basis set = -286.87545775
   11    -286.8754884654      8.28E-09 Convergence criterion met
 Total energy in the final basis set = -286.87548847
   11    -286.8754945903      4.99E-09 Convergence criterion met
 Total energy in the final basis set = -286.87549459
   11    -286.8754973989      6.13E-09 Convergence criterion met
 Total energy in the final basis set = -286.87549740

             Standard Nuclear Orientation (Angstroms)
    I     Atom           X                Y                Z
 ----------------------------------------------------------------
    1      C       1.6060445252     0.2655231896    -2.0967672007
    2      C       1.0624263217    -1.0245289037    -2.2016393565
    3      C      -0.4242945997    -0.8998226162    -2.2677164103
    4      C      -1.3073226274     0.4311607163    -0.8712472175
    5      C      -0.5891394424     0.6695235152    -2.1998210712
    6      N       0.7362700261     1.2701346964    -2.0908364897
    7      H       2.6693643377     0.4797709341    -1.9979513712
    8      H       1.6267664731    -1.9506007948    -2.1906056255
    9      H      -0.8996948146    -1.4506520653    -3.0898360780
   10      H      -1.7227557046     1.1247982847    -0.1465071217
   11      H      -1.1788921778     1.1591910976    -2.9844229867
   12      C      -1.1808703273    -0.8990443222    -0.9287426452
   13      H      -1.4728899565    -1.7145965484    -0.2723538883
 ----------------------------------------------------------------

   11    -286.8754978935      2.81E-09 Convergence criterion met
 Total energy in the final basis set = -286.87549789
 Final energy is   -286.875497893501
 **  OPTIMIZATION CONVERGED  **

                    Orbital Energies (a.u.)
 --------------------------------------------------------------

 Alpha MOs
 -- Occupied --
-14.328 -10.217 -10.216 -10.207 -10.203 -10.200 -10.195  -0.944
 -0.838  -0.752  -0.665  -0.618  -0.554  -0.523  -0.515  -0.481
 -0.428  -0.403  -0.386  -0.354  -0.341  -0.322  -0.270  -0.253
 -0.203

 Beta MOs
 -- Occupied --
-14.318 -10.219 -10.218 -10.203 -10.199 -10.198 -10.194  -0.932
 -0.831  -0.734  -0.665  -0.610  -0.549  -0.520  -0.512  -0.475
 -0.420  -0.396  -0.381  -0.343  -0.334  -0.301  -0.264  -0.246

          Ground-State Mulliken Net Atomic Charges

     Atom                 Charge (a.u.)    Spin (a.u.)
  --------------------------------------------------------
      1 C                     0.048301      -0.230639
      2 C                    -0.114927       0.693707
      3 C                    -0.193665      -0.053961
      4 C                    -0.075950       0.032451
      5 C                    -0.061737      -0.027731
      6 N                    -0.351409       0.516397
      7 H                     0.140556       0.007429
      8 H                     0.143342      -0.032170
      9 H                     0.148183       0.025208
     10 H                     0.137361       0.003603
     11 H                     0.151437       0.025300
     12 C                    -0.104845       0.033541
     13 H                     0.133353       0.006866
  --------------------------------------------------------
  Sum of atomic charges =     0.000000

                    Cartesian Multipole Moments
 -----------------------------------------------------------------
    Charge (ESU x 10^10)
                 0.0000
    Dipole Moment (Debye)
         X      -0.4824      Y      -2.0996      Z       0.0344
       Tot       2.1546
    Quadrupole Moments (Debye-Ang)
        XX     -37.9040     XY      -2.5847     YY     -41.7266
        XZ       0.3730     YZ       4.3013     ZZ     -40.0019

 Total job time:  706.91s(wall), 902.71s(cpu)
        *  Thank you very much for using Q-Chem.  Have a nice day.  *
