 Q-Chem 5.0, Q-Chem, Inc., Pleasanton, CA (2017)
 Q-Chem 5.0.2 for Intel X86 EM64T Linux

User input:
--------------------------------------------------------------
$molecule
0 2
C        1.2630391715    0.1705669203   -1.3535427353
C        0.5281763691   -1.0886969910   -1.1397329043
C       -0.6725311603   -0.6156500229   -2.1805806593
C       -1.0545281188    0.1136079550   -0.4836490199
C       -0.6408205895    0.9073519054   -2.0354474545
N        0.7897343840    1.3597918679   -1.6423679725
H        2.3599876428    0.2886642651   -1.2152300212
H        1.2042542673   -1.8760319775   -1.4806412157
H       -1.2985550845   -1.5510821207   -2.1139987367
H       -1.9894069796    0.5787999553   -0.1406914211
H       -1.1642524705    1.5708654409   -2.6855387645
C       -0.2868492221   -0.9737765998    0.1044948445
H       -0.1010291423   -0.8173633865    1.1771886182
$end

$rem
method                b3lyp
basis                 6-31g(d)
unrestricted          true
symmetry              off
sym_ignore            true
incdft                false
incfock               0
scf_convergence       8
thresh                14
jobtype               opt
scf_guess             read
scf_algorithm         diis
max_scf_cycles        100
geom_opt_tol_gradient 600
geom_opt_tol_displacement 2400
geom_opt_tol_energy   200
geom_opt_max_cycles   100
$end

--------------------------------------------------------------

    2    -286.7003303042      2.32E-09 Convergence criterion met
 Total energy in the final basis set = -286.70033030
   18    -286.7356665601      5.17E-09 Convergence criterion met
 Total energy in the final basis set = -286.73566656
   17    -286.7625024514      7.98E-09 Convergence criterion met
 Total energy in the final basis set = -286.76250245
   16    -286.7821772868      7.59E-09 Convergence criterion met
 Total energy in the final basis set = -286.78217729
   16    -286.7966285723      6.44E-09 Convergence criterion met
 Total energy in the final basis set = -286.79662857
   16    -286.8071182060      4.72E-09 Convergence criterion met
 Total energy in the final basis set = -286.80711821
   16    -286.8150605827      3.78E-09 Convergence criterion met
 Total energy in the final basis set = -286.81506058
   16    -286.8219741254      3.28E-09 Convergence criterion met
   14    -286.8509868154      2.76E-09 Convergence criterion met
 Total energy in the final basis set = -286.85098682
   13    -286.8514524929      6.55E-09 Convergence criterion met
 Total energy in the final basis set = -286.85145249
   13    -286.8515559341      4.51E-09 Convergence criterion met
 Total energy in the final basis set = -286.85155593
   13    -286.8516200562      5.66E-09 Convergence criterion met
 Total energy in the final basis set = -286.85162006
   10    -286.8516328976      9.23E-09 Convergence criterion met
 Total energy in the final basis set = -286.85163290
   11    -286.8516360554      6.31E-09 Convergence criterion met
 Total energy in the final basis set = -286.85163606

             Standard Nuclear Orientation (Angstroms)
    I     Atom           X                Y                Z
 ----------------------------------------------------------------
    1      C       1.4202060578     0.2688674741    -1.4272908039
    2      C       0.5922446310    -1.0066640173    -1.1721133364
    3      C      -0.4233784507    -0.7554249078    -2.2912082502
    4      C      -1.1277325273     0.3447236783    -0.4069669251
    5      C      -0.7065014673     0.6744506366    -1.8483956753
    6      N       0.7007062741     1.2511758428    -1.8088312844
    7      H       2.4957033708     0.3534945097    -1.2806398145
    8      H       1.1280768358    -1.9545776546    -1.1205459261
    9      H      -1.2048909396    -1.4710184757    -2.5415182981
   10      H      -1.8928529658     0.8698096741     0.1542243872
   11      H      -1.3813173492     1.3022355192    -2.4283831472
   12      C      -0.3436417719    -0.6649460846     0.0048761638
   13      H      -0.3194026306    -1.1450789833     0.9770554680
 ----------------------------------------------------------------

   10    -286.8516368785      2.72E-09 Convergence criterion met
 Total energy in the final basis set = -286.85163688
 Final energy is   -286.851636878514
 **  OPTIMIZATION CONVERGED  **

                    Orbital Energies (a.u.)
 --------------------------------------------------------------

 Alpha MOs
 -- Occupied --
-14.322 -10.223 -10.220 -10.210 -10.204 -10.201 -10.197  -0.952
 -0.821  -0.726  -0.705  -0.579  -0.573  -0.531  -0.512  -0.472
 -0.418  -0.410  -0.381  -0.373  -0.348  -0.294  -0.271  -0.258
 -0.196

 Beta MOs
 -- Occupied --
-14.321 -10.224 -10.221 -10.210 -10.200 -10.196 -10.190  -0.949
 -0.815  -0.725  -0.690  -0.577  -0.561  -0.527  -0.509  -0.463
 -0.414  -0.406  -0.379  -0.369  -0.342  -0.287  -0.261  -0.255

          Ground-State Mulliken Net Atomic Charges

     Atom                 Charge (a.u.)    Spin (a.u.)
  --------------------------------------------------------
      1 C                     0.092106      -0.008858
      2 C                    -0.245908      -0.043910
      3 C                    -0.096286       0.975812
      4 C                    -0.088160       0.040336
      5 C                    -0.094740      -0.045125
      6 N                    -0.324991       0.022009
      7 H                     0.149681      -0.000174
      8 H                     0.133844       0.002865
      9 H                     0.138863      -0.026540
     10 H                     0.146046       0.000897
     11 H                     0.139848       0.003024
     12 C                    -0.095942       0.079338
     13 H                     0.145640       0.000326
  --------------------------------------------------------
  Sum of atomic charges =    -0.000000

                    Cartesian Multipole Moments
 -----------------------------------------------------------------
    Charge (ESU x 10^10)
                -0.0000
    Dipole Moment (Debye)
         X      -0.6095      Y      -1.9109      Z       1.2692
       Tot       2.3735
    Quadrupole Moments (Debye-Ang)
        XX     -37.0438     XY      -3.3239     YY     -42.8211
        XZ       1.9211     YZ       2.7975     ZZ     -43.9127

 Total job time:  865.56s(wall), 1051.69s(cpu)
        *  Thank you very much for using Q-Chem.  Have a nice day.  *
