 Q-Chem 5.0, Q-Chem, Inc., Pleasanton, CA (2017)
 Q-Chem 5.0.2 for Intel X86 EM64T Linux

User input:
--------------------------------------------------------------
$molecule
0 2
C        1.6766486773    0.4031423996   -0.1918642777
C        1.1282007034   -0.8292677530   -0.2746751194
C       -0.3108954007   -1.0646849315   -0.0774503053
C       -1.1574502219    0.3247619811    0.0611268453
C       -0.3360814165    1.5304213908   -0.1504490947
N        0.9506007858    1.5940531829   -0.1791971504
H        2.7521717286    0.5365429016   -0.2744071056
H        1.7516913487   -1.6895276794   -0.5057336480
H       -0.7536594289   -1.9049524985   -0.6150243458
H       -2.1693372430    0.3822252724   -0.3446568584
H       -0.8817838171    2.4546204173   -0.3561880328
C       -0.9441731845   -0.6183577630    1.1612753437
H       -1.7059325314   -1.1189769209    1.7472437488
$end

$rem
method                b3lyp
basis                 6-31g(d)
unrestricted          true
symmetry              off
sym_ignore            true
incdft                false
incfock               0
scf_convergence       8
thresh                14
jobtype               opt
scf_guess             read
scf_algorithm         diis
max_scf_cycles        100
geom_opt_tol_gradient 600
geom_opt_tol_displacement 2400
geom_opt_tol_energy   200
geom_opt_max_cycles   100
$end

--------------------------------------------------------------

    2    -286.8549117567      2.78E-09 Convergence criterion met
 Total energy in the final basis set = -286.85491176

             Standard Nuclear Orientation (Angstroms)
    I     Atom           X                Y                Z
 ----------------------------------------------------------------
    1      C       1.6764861761     0.4030962449    -0.1933765048
    2      C       1.1279627396    -0.8294141782    -0.2762910558
    3      C      -0.3111035494    -1.0650037359    -0.0779539795
    4      C      -1.1573303877     0.3244990822     0.0602621252
    5      C      -0.3362579611     1.5306849910    -0.1494489959
    6      N       0.9504554766     1.5941664001    -0.1780582015
    7      H       2.7522588712     0.5364691280    -0.2731397300
    8      H       1.7522526802    -1.6894963286    -0.5059959962
    9      H      -0.7537740088    -1.9068667494    -0.6134510429
   10      H      -2.1691126908     0.3825119368    -0.3458369215
   11      H      -0.8822823525     2.4546819240    -0.3551589622
   12      C      -0.9438401723    -0.6180381395     1.1608062790
   13      H      -1.7057148214    -1.1172905760     1.7476429859
 ----------------------------------------------------------------

   10    -286.8549134561      5.28E-09 Convergence criterion met
 Total energy in the final basis set = -286.85491346
 Final energy is   -286.854913456075
 **  OPTIMIZATION CONVERGED  **

                    Orbital Energies (a.u.)
 --------------------------------------------------------------

 Alpha MOs
 -- Occupied --
-14.323 -10.230 -10.224 -10.221 -10.219 -10.206 -10.195  -0.934
 -0.868  -0.765  -0.667  -0.641  -0.570  -0.532  -0.491  -0.482
 -0.451  -0.426  -0.377  -0.373  -0.359  -0.300  -0.256  -0.229
 -0.219

 Beta MOs
 -- Occupied --
-14.323 -10.229 -10.225 -10.221 -10.207 -10.205 -10.194  -0.932
 -0.858  -0.763  -0.659  -0.639  -0.556  -0.527  -0.488  -0.472
 -0.447  -0.423  -0.375  -0.370  -0.351  -0.290  -0.250  -0.225

          Ground-State Mulliken Net Atomic Charges

     Atom                 Charge (a.u.)    Spin (a.u.)
  --------------------------------------------------------
      1 C                    -0.009080      -0.014947
      2 C                    -0.084069       0.041694
      3 C                    -0.175856      -0.016371
      4 C                    -0.194423      -0.016600
      5 C                     0.088462       0.018905
      6 N                    -0.391578       0.002912
      7 H                     0.136743       0.000779
      8 H                     0.139624       0.003594
      9 H                     0.155222       0.016910
     10 H                     0.155423       0.022657
     11 H                     0.142809       0.005867
     12 C                    -0.120979       0.957735
     13 H                     0.157703      -0.023135
  --------------------------------------------------------
  Sum of atomic charges =    -0.000000

                    Cartesian Multipole Moments
 -----------------------------------------------------------------
    Charge (ESU x 10^10)
                -0.0000
    Dipole Moment (Debye)
         X      -1.9337      Y      -2.0501      Z      -0.3174
       Tot       2.8360
    Quadrupole Moments (Debye-Ang)
        XX     -36.9701     XY      -2.9356     YY     -41.5949
        XZ      -0.4549     YZ       0.3337     ZZ     -42.3436

 Total job time:  56.33s(wall), 49.95s(cpu)
        *  Thank you very much for using Q-Chem.  Have a nice day.  *
