 Q-Chem 5.0, Q-Chem, Inc., Pleasanton, CA (2017)
 Q-Chem 5.0.2 for Intel X86 EM64T Linux

User input:
--------------------------------------------------------------
$molecule
0 2
C        0.5790544799   -0.0352893116    0.2311747782
C        0.8307935072   -1.2536009814   -0.6523237532
C        0.7682008494   -2.5052669198   -0.2609792757
C       -1.3102393635    1.2579465512    0.5061931094
C       -0.2877865073    1.9236155324   -0.3163840418
N        0.7783120848    1.2206772000   -0.5076226091
H        1.3236673354   -0.0396890026    1.0433333656
H        1.0868829714   -1.0153558992   -1.6907845300
H        0.9040669756   -3.4887008517   -0.6893610225
H       -2.2756881208    1.6714468289    0.7730542678
H       -0.3860945744    2.9185566255   -0.7462793586
C       -0.8034700230    0.0535144506    0.8332604179
H       -1.2620467596   -0.7325635364    1.4204040629
$end

$rem
method                b3lyp
basis                 6-31+g(d,p)
unrestricted          true
symmetry              off
sym_ignore            true
incdft                false
incfock               0
scf_convergence       6
thresh                14
jobtype               sp
scf_guess             read
scf_algorithm         diis
max_scf_cycles        100
stability_analysis    true
max_cis_cycles        100
cis_n_roots           4
$end

--------------------------------------------------------------

             Standard Nuclear Orientation (Angstroms)
    I     Atom           X                Y                Z
 ----------------------------------------------------------------
    1      C       0.5790544799    -0.0352893116     0.2311747782
    2      C       0.8307935072    -1.2536009814    -0.6523237532
    3      C       0.7682008494    -2.5052669198    -0.2609792757
    4      C      -1.3102393635     1.2579465512     0.5061931094
    5      C      -0.2877865073     1.9236155324    -0.3163840418
    6      N       0.7783120848     1.2206772000    -0.5076226091
    7      H       1.3236673354    -0.0396890026     1.0433333656
    8      H       1.0868829714    -1.0153558992    -1.6907845300
    9      H       0.9040669756    -3.4887008517    -0.6893610225
   10      H      -2.2756881208     1.6714468289     0.7730542678
   11      H      -0.3860945744     2.9185566255    -0.7462793586
   12      C      -0.8034700230     0.0535144506     0.8332604179
   13      H      -1.2620467596    -0.7325635364     1.4204040629
 ----------------------------------------------------------------

    2    -286.8730185623      1.55E-09 Convergence criterion met
 Total energy in the final basis set = -286.87301856

         TDDFT/TDA Excitation Energies
 ---------------------------------------------------

 Excited state   1: excitation energy (eV) =    2.8587
 Total energy for state  1:                  -286.76796464 au
    <S**2>     :  0.7699
    Trans. Mom.: -0.1223 X  -0.0206 Y  -0.0307 Z
    Strength   :     0.0011435277
    D( 22) --> S(  1) amplitude =  0.4018 beta
    D( 23) --> S(  1) amplitude =  0.5700 beta
    D( 24) --> S(  1) amplitude =  0.6899 beta

 Excited state   2: excitation energy (eV) =    3.3629
 Total energy for state  2:                  -286.74943328 au
    <S**2>     :  2.6834
    Trans. Mom.:  0.0086 X   0.0008 Y   0.0042 Z
    Strength   :     0.0000076926
    D( 24) --> V(  1) amplitude = -0.6225 alpha
    S(  1) --> V(  1) amplitude =  0.1918 alpha
    D( 23) --> S(  1) amplitude = -0.1562 beta
    D( 23) --> V(  1) amplitude = -0.2786 beta
    D( 24) --> V(  1) amplitude =  0.6021 beta

 Excited state   3: excitation energy (eV) =    3.9529
 Total energy for state  3:                  -286.72775203 au
    <S**2>     :  0.8742
    Trans. Mom.:  0.0526 X  -0.0741 Y   0.0223 Z
    Strength   :     0.0008474707
    D( 22) --> S(  1) amplitude = -0.3055 beta
    D( 23) --> S(  1) amplitude = -0.5963 beta
    D( 24) --> S(  1) amplitude =  0.6994 beta
    D( 24) --> V(  1) amplitude = -0.1645 beta

 Excited state   4: excitation energy (eV) =    4.0654
 Total energy for state  4:                  -286.72361719 au
    <S**2>     :  2.3389
    Trans. Mom.: -0.0067 X   0.0154 Y  -0.0129 Z
    Strength   :     0.0000445559
    D( 23) --> V(  1) amplitude =  0.5455 alpha
    S(  1) --> V(  1) amplitude =  0.2150 alpha
    D( 22) --> S(  1) amplitude =  0.4100 beta
    D( 22) --> V(  1) amplitude =  0.4743 beta
    D( 23) --> S(  1) amplitude = -0.1843 beta
    D( 23) --> V(  1) amplitude = -0.3661 beta

 ---------------------------------------------------

                    Orbital Energies (a.u.)
 --------------------------------------------------------------

 Alpha MOs
 -- Occupied --
-14.336 -10.239 -10.237 -10.222 -10.215 -10.214 -10.208  -0.956
 -0.802  -0.777  -0.716  -0.602  -0.567  -0.553  -0.517  -0.480
 -0.453  -0.415  -0.408  -0.387  -0.340  -0.285  -0.279  -0.264
 -0.246

 Beta MOs
 -- Occupied --
-14.336 -10.238 -10.237 -10.217 -10.214 -10.208 -10.207  -0.956
 -0.794  -0.776  -0.705  -0.593  -0.566  -0.543  -0.516  -0.471
 -0.444  -0.414  -0.405  -0.385  -0.337  -0.280  -0.276  -0.261

          Ground-State Mulliken Net Atomic Charges

     Atom                 Charge (a.u.)    Spin (a.u.)
  --------------------------------------------------------
      1 C                    -0.098440       0.083576
      2 C                    -0.007202      -0.311782
      3 C                    -0.327854       1.170431
      4 C                    -0.049746      -0.000877
      5 C                    -0.092623      -0.002365
      6 N                    -0.204057      -0.003472
      7 H                     0.191812      -0.004706
      8 H                     0.169406       0.080912
      9 H                     0.154754       0.005925
     10 H                     0.135144      -0.000152
     11 H                     0.132133       0.000470
     12 C                    -0.150239      -0.017770
     13 H                     0.146914      -0.000190
  --------------------------------------------------------
  Sum of atomic charges =    -0.000000

                    Cartesian Multipole Moments
 -----------------------------------------------------------------
    Charge (ESU x 10^10)
                -0.0000
    Dipole Moment (Debye)
         X      -1.5890      Y      -0.4447      Z       0.6349
       Tot       1.7680
    Quadrupole Moments (Debye-Ang)
        XX     -43.1075     XY      -4.5600     YY     -37.9284
        XZ      -0.1285     YZ       1.7962     ZZ     -41.6998

 Total job time:  204.63s(wall), 196.55s(cpu)
        *  Thank you very much for using Q-Chem.  Have a nice day.  *
