 Q-Chem 5.0, Q-Chem, Inc., Pleasanton, CA (2017)
 Q-Chem 5.0.2 for Intel X86 EM64T Linux

User input:
--------------------------------------------------------------
$molecule
0 2
C        0.6306851241   -0.0078315587    0.3192927897
C        1.0085150912   -1.2392780196   -0.4826126645
C        0.2895449529   -2.3326656526   -0.5968148789
C       -1.3310823940    1.1876160335    0.4427329062
C       -0.3192377021    1.8586192971   -0.3871206540
N        0.7938978362    1.2119605552   -0.4921204525
H        1.3513300193    0.0824900885    1.1510730420
H        1.9752601365   -1.1585814376   -0.9929070835
H        0.3680396157   -3.2916794127   -1.0911916668
H       -2.3272046852    1.5604368448    0.6504284253
H       -0.4582329634    2.8158075126   -0.8861689394
C       -0.7707021251    0.0385101092    0.8682765853
H       -1.2108129061   -0.7254043597    1.4971325910
$end

$rem
method                b3lyp
basis                 6-31+g(d,p)
unrestricted          true
symmetry              off
sym_ignore            true
incdft                false
incfock               0
scf_convergence       8
thresh                14
jobtype               sp
scf_guess             read
scf_algorithm         diis
max_scf_cycles        100
scf_final_print       1
$end

--------------------------------------------------------------

             Standard Nuclear Orientation (Angstroms)
    I     Atom           X                Y                Z
 ----------------------------------------------------------------
    1      C       0.6306851241    -0.0078315587     0.3192927897
    2      C       1.0085150912    -1.2392780196    -0.4826126645
    3      C       0.2895449529    -2.3326656526    -0.5968148789
    4      C      -1.3310823940     1.1876160335     0.4427329062
    5      C      -0.3192377021     1.8586192971    -0.3871206540
    6      N       0.7938978362     1.2119605552    -0.4921204525
    7      H       1.3513300193     0.0824900885     1.1510730420
    8      H       1.9752601365    -1.1585814376    -0.9929070835
    9      H       0.3680396157    -3.2916794127    -1.0911916668
   10      H      -2.3272046852     1.5604368448     0.6504284253
   11      H      -0.4582329634     2.8158075126    -0.8861689394
   12      C      -0.7707021251     0.0385101092     0.8682765853
   13      H      -1.2108129061    -0.7254043597     1.4971325910
 ----------------------------------------------------------------

    2    -286.8748335197      2.23E-09 Convergence criterion met
 Total energy in the final basis set = -286.87483352

                    Orbital Energies (a.u.)
 --------------------------------------------------------------

 Alpha MOs
 -- Occupied --
-14.336 -10.239 -10.235 -10.222 -10.215 -10.213 -10.208  -0.956
 -0.803  -0.776  -0.715  -0.606  -0.566  -0.547  -0.517  -0.478
 -0.458  -0.417  -0.408  -0.381  -0.337  -0.286  -0.278  -0.266
 -0.245

 Beta MOs
 -- Occupied --
-14.336 -10.238 -10.235 -10.217 -10.213 -10.208 -10.207  -0.955
 -0.794  -0.775  -0.704  -0.597  -0.565  -0.539  -0.514  -0.467
 -0.453  -0.415  -0.407  -0.376  -0.335  -0.281  -0.274  -0.264

          Ground-State Mulliken Net Atomic Charges

     Atom                 Charge (a.u.)    Spin (a.u.)
  --------------------------------------------------------
      1 C                    -0.038978       0.082322
      2 C                    -0.110473      -0.310593
      3 C                    -0.225339       1.162200
      4 C                     0.030779      -0.030220
      5 C                    -0.147944       0.014361
      6 N                    -0.207943      -0.004008
      7 H                     0.178403      -0.004875
      8 H                     0.158962       0.078749
      9 H                     0.154771       0.008728
     10 H                     0.134529       0.000245
     11 H                     0.131662      -0.000083
     12 C                    -0.204128       0.003184
     13 H                     0.145699      -0.000011
  --------------------------------------------------------
  Sum of atomic charges =     0.000000

                    Cartesian Multipole Moments
 -----------------------------------------------------------------
    Charge (ESU x 10^10)
                 0.0000
    Dipole Moment (Debye)
         X      -1.1232      Y      -0.5702      Z       0.9575
       Tot       1.5823
    Quadrupole Moments (Debye-Ang)
        XX     -41.0963     XY      -4.9596     YY     -38.4212
        XZ       0.1057     YZ       1.4539     ZZ     -42.4580

 Total job time:  3.95s(wall), 11.53s(cpu)
        *  Thank you very much for using Q-Chem.  Have a nice day.  *
