 Q-Chem 5.0, Q-Chem, Inc., Pleasanton, CA (2017)
 Q-Chem 5.0.2 for Intel X86 EM64T Linux

User input:
--------------------------------------------------------------
$molecule
0 2
C        0.5011281854   -0.1105052994    0.3053428782
C        0.6357935931   -1.3132604470   -0.6125259769
C        1.3181439088   -2.4009546905   -0.3373579249
C       -1.2843917211    1.3457335805    0.4468306444
C       -0.1460561540    1.9225961501   -0.2865181105
N        0.8708261247    1.1330843501   -0.3928803647
H        1.1943414283   -0.2366556792    1.1486905241
H        0.0987777551   -1.2266609897   -1.5645736578
H        1.5463995269   -3.3472253420   -0.8089590218
H       -2.2277706653    1.8411909320    0.6445620454
H       -0.1245653893    2.9228426215   -0.7149326223
C       -0.9071142878    0.1041759415    0.8099795185
H       -1.4755123051   -0.6343611284    1.3623420679
$end

$rem
method                b3lyp
basis                 6-31+g(d,p)
unrestricted          true
symmetry              off
sym_ignore            true
incdft                false
incfock               0
scf_convergence       8
thresh                14
jobtype               sp
scf_guess             core
scf_guess_mix         5
scf_algorithm         diis
max_scf_cycles        100
$end

--------------------------------------------------------------

             Standard Nuclear Orientation (Angstroms)
    I     Atom           X                Y                Z
 ----------------------------------------------------------------
    1      C       0.5011281854    -0.1105052994     0.3053428782
    2      C       0.6357935931    -1.3132604470    -0.6125259769
    3      C       1.3181439088    -2.4009546905    -0.3373579249
    4      C      -1.2843917211     1.3457335805     0.4468306444
    5      C      -0.1460561540     1.9225961501    -0.2865181105
    6      N       0.8708261247     1.1330843501    -0.3928803647
    7      H       1.1943414283    -0.2366556792     1.1486905241
    8      H       0.0987777551    -1.2266609897    -1.5645736578
    9      H       1.5463995269    -3.3472253420    -0.8089590218
   10      H      -2.2277706653     1.8411909320     0.6445620454
   11      H      -0.1245653893     2.9228426215    -0.7149326223
   12      C      -0.9071142878     0.1041759415     0.8099795185
   13      H      -1.4755123051    -0.6343611284     1.3623420679
 ----------------------------------------------------------------

   24    -286.8750665585      6.09E-09 Convergence criterion met
 Total energy in the final basis set = -286.87506656

                    Orbital Energies (a.u.)
 --------------------------------------------------------------

 Alpha MOs
 -- Occupied --
-14.337 -10.238 -10.237 -10.223 -10.216 -10.215 -10.211  -0.956
 -0.803  -0.778  -0.715  -0.599  -0.568  -0.556  -0.522  -0.485
 -0.440  -0.421  -0.413  -0.378  -0.338  -0.295  -0.276  -0.263
 -0.247

 Beta MOs
 -- Occupied --
-14.337 -10.237 -10.237 -10.217 -10.215 -10.211 -10.208  -0.956
 -0.794  -0.777  -0.705  -0.591  -0.567  -0.547  -0.521  -0.476
 -0.429  -0.420  -0.412  -0.376  -0.337  -0.290  -0.276  -0.260

          Ground-State Mulliken Net Atomic Charges

     Atom                 Charge (a.u.)    Spin (a.u.)
  --------------------------------------------------------
      1 C                    -0.173646       0.076323
      2 C                     0.084396      -0.284099
      3 C                    -0.321920       1.154633
      4 C                    -0.012728      -0.000365
      5 C                    -0.062513      -0.007151
      6 N                    -0.185447      -0.003421
      7 H                     0.174618      -0.000922
      8 H                     0.149100       0.076073
      9 H                     0.154116       0.007506
     10 H                     0.135964       0.000129
     11 H                     0.131713       0.000281
     12 C                    -0.218525      -0.019038
     13 H                     0.144871       0.000050
  --------------------------------------------------------
  Sum of atomic charges =     0.000000

                    Cartesian Multipole Moments
 -----------------------------------------------------------------
    Charge (ESU x 10^10)
                -0.0000
    Dipole Moment (Debye)
         X      -2.2600      Y      -0.3988      Z       0.5052
       Tot       2.3499
    Quadrupole Moments (Debye-Ang)
        XX     -44.1650     XY      -4.2305     YY     -37.0748
        XZ       0.5906     YZ       1.7037     ZZ     -41.6450

 Total job time:  36.12s(wall), 117.27s(cpu)
        *  Thank you very much for using Q-Chem.  Have a nice day.  *
