 Q-Chem 5.0, Q-Chem, Inc., Pleasanton, CA (2017)
 Q-Chem 5.0.2 for Intel X86 EM64T Linux

User input:
--------------------------------------------------------------
$molecule
0 2
C        1.6803072342    0.3945463122   -0.1790683170
C        1.1263490106   -0.8348011062   -0.2673907334
C       -0.3164220115   -1.0621630924   -0.0827497347
C       -1.1559921890    0.3283053733    0.0476775594
C       -0.3270390790    1.5323805493   -0.1490913060
N        0.9598779594    1.5896965768   -0.1665298860
H        2.7571846633    0.5230636471   -0.2509313291
H        1.7481625718   -1.6980040683   -0.4919427787
H       -0.7580703293   -1.9017057218   -0.6227678223
H       -2.1629936635    0.3924217203   -0.3692168243
H       -0.8669858804    2.4604237218   -0.3527428824
C       -0.9581665579   -0.6145042569    1.1513137541
H       -1.7262117293   -1.1096596548    1.7334402998
****
C        0.6600150368    0.0217165596    0.2819036946
C        1.0082375913   -1.2163559005   -0.5239922443
C        0.3011655536   -2.3207575819   -0.5674222112
C       -1.3310395665    1.1494414632    0.5064902769
C       -0.4007858027    1.8290878732   -0.4066090903
N        0.7273857165    1.2250845079   -0.5678448455
H        1.4364215398    0.1496580123    1.0566952574
H        1.9355650069   -1.1238902186   -1.1014598469
H        0.3713647542   -3.2860812697   -1.0527676720
H       -2.3248181208    1.4943473167    0.7691293313
H       -0.6105859327    2.7669064780   -0.9200369027
C       -0.7023045007    0.0362492066    0.9246451061
H       -1.0706212760   -0.7254064469    1.6012691466
$end

$rem
method                b3lyp
basis                 6-31g(d)
unrestricted          true
symmetry              off
sym_ignore            true
incdft                false
incfock               0
scf_convergence       8
thresh                14
jobtype               fsm
scf_guess             core
scf_guess_mix         5
scf_algorithm         diis
max_scf_cycles        100
fsm_nnode             21
fsm_ngrad             6
fsm_mode              2
fsm_opt_mode          2
$end

--------------------------------------------------------------

   20    -286.8549117856      8.20E-09 Convergence criterion met
 Total energy in the final basis set = -286.85491179
   22    -286.8505317250      5.72E-09 Convergence criterion met
 Total energy in the final basis set = -286.85053172
   22    -286.8493557075      4.95E-09 Convergence criterion met
 Total energy in the final basis set = -286.84935571
   22    -286.8506712544      3.50E-09 Convergence criterion met
 Total energy in the final basis set = -286.85067125
   22    -286.8508387832      3.91E-09 Convergence criterion met
 Total energy in the final basis set = -286.85083878
   22    -286.8525629914      3.41E-09 Convergence criterion met
 Total energy in the final basis set = -286.85256299
   22    -286.8469796680      4.60E-09 Convergence criterion met
 Total energy in the final basis set = -286.84697967
   22    -286.8485352051      5.01E-09 Convergence criterion met
 Total energy in the final basis set = -286.81101266
   23    -286.8102332348      7.08E-09 Convergence criterion met
 Total energy in the final basis set = -286.81023323
   23    -286.8109792432      6.94E-09 Convergence criterion met
 Total energy in the final basis set = -286.81097924
   23    -286.8102678576      7.12E-09 Convergence criterion met
 Total energy in the final basis set = -286.81026786
   23    -286.8109404335      6.88E-09 Convergence criterion met
 Total energy in the final basis set = -286.81094043
   23    -286.8103077982      7.17E-09 Convergence criterion met
 Total energy in the final basis set = -286.81030780
   23    -286.8109072230      6.84E-09 Convergence criterion met
 Total energy in the final basis set = -286.81090722
   23    -286.8103425321      7.19E-09 Convergence criterion met
 Total energy in the final basis set = -286.81034253

                    Orbital Energies (a.u.)
 --------------------------------------------------------------

 Alpha MOs
 -- Occupied --
-14.322 -10.240 -10.221 -10.218 -10.204 -10.198 -10.195  -0.943
 -0.799  -0.763  -0.686  -0.604  -0.551  -0.526  -0.514  -0.475
 -0.424  -0.413  -0.393  -0.359  -0.323  -0.284  -0.278  -0.256
 -0.195

 Beta MOs
 -- Occupied --
-14.319 -10.239 -10.223 -10.220 -10.200 -10.191 -10.190  -0.938
 -0.791  -0.757  -0.679  -0.597  -0.545  -0.518  -0.511  -0.468
 -0.416  -0.411  -0.392  -0.356  -0.315  -0.274  -0.258  -0.250

          Ground-State Mulliken Net Atomic Charges

     Atom                 Charge (a.u.)    Spin (a.u.)
  --------------------------------------------------------
      1 C                    -0.054821       0.039811
      2 C                    -0.097498      -0.135531
      3 C                    -0.176949       0.851072
      4 C                    -0.113274       0.280382
      5 C                     0.067426      -0.087596
      6 N                    -0.361292       0.151430
      7 H                     0.160787       0.006504
      8 H                     0.147580       0.052325
      9 H                     0.151784       0.014576
     10 H                     0.146125      -0.013135
     11 H                     0.139300       0.002901
     12 C                    -0.178190      -0.179311
     13 H                     0.169023       0.016571
  --------------------------------------------------------
  Sum of atomic charges =    -0.000000

                    Cartesian Multipole Moments
 -----------------------------------------------------------------
    Charge (ESU x 10^10)
                -0.0000
    Dipole Moment (Debye)
         X      -1.3132      Y      -1.3087      Z       0.5701
       Tot       1.9396
    Quadrupole Moments (Debye-Ang)
        XX     -37.8178     XY      -3.4377     YY     -39.7991
        XZ       0.8346     YZ       0.8796     ZZ     -41.7220

             Standard Nuclear Orientation (Angstroms)
    I     Atom           X                Y                Z
 ----------------------------------------------------------------
    1      C       0.9327496154     0.1509550163     0.3465291766
    2      C       1.0644469533    -1.1312007005    -0.4808630164
    3      C      -0.0170161168    -1.8760574933    -0.5483727795
    4      C      -1.3089864745     0.8903444688     0.3793148352
    5      C      -0.4340963717     1.7272872441    -0.4210101310
    6      N       0.8000649916     1.3722995682    -0.4503065900
    7      H       1.8626320430     0.2877496458     0.9326189468
    8      H       2.0159680678    -1.3982731507    -0.9467818467
    9      H      -0.3249545460    -2.8041374809    -1.0187684640
   10      H      -2.3946049199     0.9555296561     0.3880385520
   11      H      -0.7750245053     2.6431793825    -0.9081502615
   12      C      -0.5397235176    -0.0597518050     0.9828695796
   13      H      -0.9358023642    -0.7826336659     1.6885674101
 ----------------------------------------------------------------

 Total job time:  1838.69s(wall), 4994.90s(cpu)
        *  Thank you very much for using Q-Chem.  Have a nice day.  *
