 Q-Chem 5.0, Q-Chem, Inc., Pleasanton, CA (2017)
 Q-Chem 5.0.2 for Intel X86 EM64T Linux

User input:
--------------------------------------------------------------
$molecule
0 2
C        0.5749777878   -0.0414768629    0.2378080345
C        0.8103535558   -1.2566459554   -0.6543169374
C        0.8281558492   -2.5055520379   -0.2499875705
C       -1.3075166336    1.2664397176    0.4982322210
C       -0.2705402908    1.9271202262   -0.3102888367
N        0.7929140591    1.2170975657   -0.4914342527
H        1.3119563732   -0.0632264036    1.0554586725
H        0.9692078784   -1.0200205327   -1.7126944267
H        0.9619571113   -3.4882301635   -0.6805227278
H       -2.2721311419    1.6866359849    0.7573206270
H       -0.3570464971    2.9239967143   -0.7381336080
C       -0.8134545224    0.0570456802    0.8261930648
H       -1.2831806806   -0.7278932282    1.4060511696
$end

$rem
method                b3lyp
basis                 6-31+g(d,p)
unrestricted          true
symmetry              off
sym_ignore            true
incdft                false
incfock               0
scf_convergence       8
thresh                14
jobtype               opt
scf_guess             read
scf_algorithm         diis
max_scf_cycles        100
geom_opt_max_cycles   300
$end

--------------------------------------------------------------

   17    -286.8730718180      7.29E-09 Convergence criterion met
 Total energy in the final basis set = -286.87307182
   13    -286.8731101519      4.16E-09 Convergence criterion met
 Total energy in the final basis set = -286.87311015
   14    -286.8715090136      4.96E-09 Convergence criterion met
 Total energy in the final basis set = -286.87150901
   14    -286.8732715477      3.75E-09 Convergence criterion met
 Total energy in the final basis set = -286.87327155
   14    -286.8735949197      3.88E-09 Convergence criterion met
 Total energy in the final basis set = -286.87359492
   13    -286.8740235684      8.92E-09 Convergence criterion met
 Total energy in the final basis set = -286.87402357
   14    -286.8710435356      3.10E-09 Convergence criterion met
 Total energy in the final basis set = -286.87104354
   13    -286.8743012298      8.76E-09 Convergence criterion met
 Total energy in the final basis set = -286.87430123
   13    -286.8747136026      8.08E-09 Convergence criterion met
 Total energy in the final basis set = -286.87471360
   13    -286.8749927666      8.84E-09 Convergence criterion met
 Total energy in the final basis set = -286.87499277
   13    -286.8750515927      8.74E-09 Convergence criterion met
 Total energy in the final basis set = -286.87505159
   12    -286.8750617857      8.67E-09 Convergence criterion met
 Total energy in the final basis set = -286.87506179
   11    -286.8750662348      8.25E-09 Convergence criterion met
 Total energy in the final basis set = -286.87506623

             Standard Nuclear Orientation (Angstroms)
    I     Atom           X                Y                Z
 ----------------------------------------------------------------
    1      C       0.4969476353    -0.1124060144     0.3010109882
    2      C       0.6316130430    -1.3151611620    -0.6168578669
    3      C       1.3139633587    -2.4028554055    -0.3416898149
    4      C      -1.2885722712     1.3438328655     0.4424987544
    5      C      -0.1502367041     1.9206954351    -0.2908500005
    6      N       0.8666455746     1.1311836351    -0.3972122547
    7      H       1.1901608782    -0.2385563942     1.1443586341
    8      H       0.0945972050    -1.2285617047    -1.5689055478
    9      H       1.5422189768    -3.3491260570    -0.8132909118
   10      H      -2.2319512154     1.8392902170     0.6402301554
   11      H      -0.1287459394     2.9209419065    -0.7192645123
   12      C      -0.9112948379     0.1022752265     0.8056476285
   13      H      -1.4796928552    -0.6362618434     1.3580101779
 ----------------------------------------------------------------

   11    -286.8750665627      4.99E-09 Convergence criterion met
 Total energy in the final basis set = -286.87506656
 Final energy is   -286.875066562684
 **  OPTIMIZATION CONVERGED  **

                    Orbital Energies (a.u.)
 --------------------------------------------------------------

 Alpha MOs
 -- Occupied --
-14.337 -10.238 -10.237 -10.223 -10.216 -10.215 -10.211  -0.956
 -0.803  -0.778  -0.715  -0.599  -0.568  -0.556  -0.522  -0.485
 -0.440  -0.421  -0.413  -0.378  -0.338  -0.295  -0.276  -0.263
 -0.247

 Beta MOs
 -- Occupied --
-14.337 -10.237 -10.237 -10.217 -10.215 -10.211 -10.208  -0.956
 -0.794  -0.777  -0.705  -0.591  -0.567  -0.547  -0.521  -0.476
 -0.429  -0.420  -0.412  -0.376  -0.337  -0.290  -0.276  -0.260

          Ground-State Mulliken Net Atomic Charges

     Atom                 Charge (a.u.)    Spin (a.u.)
  --------------------------------------------------------
      1 C                    -0.173646       0.076319
      2 C                     0.084396      -0.284092
      3 C                    -0.321920       1.154620
      4 C                    -0.012728      -0.000585
      5 C                    -0.062513      -0.006985
      6 N                    -0.185447      -0.003591
      7 H                     0.174618      -0.000923
      8 H                     0.149100       0.076072
      9 H                     0.154116       0.007507
     10 H                     0.135964       0.000143
     11 H                     0.131713       0.000270
     12 C                    -0.218525      -0.018788
     13 H                     0.144871       0.000033
  --------------------------------------------------------
  Sum of atomic charges =    -0.000000

                    Cartesian Multipole Moments
 -----------------------------------------------------------------
    Charge (ESU x 10^10)
                -0.0000
    Dipole Moment (Debye)
         X      -2.2600      Y      -0.3988      Z       0.5052
       Tot       2.3499
    Quadrupole Moments (Debye-Ang)
        XX     -44.1461     XY      -4.2246     YY     -37.0733
        XZ       0.5983     YZ       1.7045     ZZ     -41.6493

 Total job time:  362.39s(wall), 1140.22s(cpu)
        *  Thank you very much for using Q-Chem.  Have a nice day.  *
