 Q-Chem 5.0, Q-Chem, Inc., Pleasanton, CA (2017)
 Q-Chem 5.0.2 for Intel X86 EM64T Linux

User input:
--------------------------------------------------------------
$molecule
0 2
C        0.6574972011    0.0208007156    0.2806613023
C        1.0071821366   -1.2174319305   -0.5244428927
C        0.3032007222   -2.3236513888   -0.5672611172
C       -1.3309762843    1.1511831546    0.5068860752
C       -0.4003905167    1.8307396575   -0.4063839677
N        0.7265163540    1.2237956417   -0.5684761525
H        1.4340666131    0.1490763331    1.0553231697
H        1.9346521411   -1.1231490394   -1.1013215857
H        0.3765221234   -3.2886226148   -1.0528583827
H       -2.3239256500    1.4962469481    0.7724061532
H       -0.6090046255    2.7687817943   -0.9196545436
C       -0.7038731787    0.0365166868    0.9236013208
H       -1.0714670365   -0.7242859583    1.6015206208
$end

$rem
method                b3lyp
basis                 6-31g(d)
unrestricted          true
symmetry              off
sym_ignore            true
incdft                false
incfock               0
scf_convergence       8
thresh                14
jobtype               opt
scf_guess             core
scf_guess_mix         5
scf_algorithm         diis
max_scf_cycles        100
geom_opt_max_cycles   300
$end

--------------------------------------------------------------

   22    -286.8505297445      5.65E-09 Convergence criterion met
 Total energy in the final basis set = -286.85052974
   17    -286.8505314163      4.94E-09 Convergence criterion met
 Total energy in the final basis set = -286.85053142

             Standard Nuclear Orientation (Angstroms)
    I     Atom           X                Y                Z
 ----------------------------------------------------------------
    1      C       0.6600150368     0.0217165596     0.2819036946
    2      C       1.0082375913    -1.2163559005    -0.5239922443
    3      C       0.3011655536    -2.3207575819    -0.5674222112
    4      C      -1.3310395665     1.1494414632     0.5064902769
    5      C      -0.4007858027     1.8290878732    -0.4066090903
    6      N       0.7273857165     1.2250845079    -0.5678448455
    7      H       1.4364215398     0.1496580123     1.0566952574
    8      H       1.9355650069    -1.1238902186    -1.1014598469
    9      H       0.3713647542    -3.2860812697    -1.0527676720
   10      H      -2.3248181208     1.4943473167     0.7691293313
   11      H      -0.6105859327     2.7669064780    -0.9200369027
   12      C      -0.7023045007     0.0362492066     0.9246451061
   13      H      -1.0706212760    -0.7254064469     1.6012691466
 ----------------------------------------------------------------

   17    -286.8505315714      4.95E-09 Convergence criterion met
 Total energy in the final basis set = -286.85053157
 Final energy is   -286.850531571382
 **  OPTIMIZATION CONVERGED  **

                    Orbital Energies (a.u.)
 --------------------------------------------------------------

 Alpha MOs
 -- Occupied --
-14.321 -10.227 -10.224 -10.209 -10.202 -10.201 -10.196  -0.943
 -0.790  -0.765  -0.704  -0.595  -0.556  -0.538  -0.507  -0.469
 -0.446  -0.405  -0.398  -0.370  -0.326  -0.274  -0.265  -0.254
 -0.234

 Beta MOs
 -- Occupied --
-14.321 -10.226 -10.224 -10.204 -10.201 -10.196 -10.193  -0.943
 -0.782  -0.764  -0.692  -0.587  -0.555  -0.529  -0.504  -0.457
 -0.441  -0.403  -0.397  -0.365  -0.324  -0.268  -0.261  -0.252

          Ground-State Mulliken Net Atomic Charges

     Atom                 Charge (a.u.)    Spin (a.u.)
  --------------------------------------------------------
      1 C                    -0.069402       0.042930
      2 C                    -0.103334      -0.167520
      3 C                    -0.198482       1.040386
      4 C                    -0.142391       0.000303
      5 C                     0.055922       0.004815
      6 N                    -0.377554      -0.003526
      7 H                     0.181034      -0.004357
      8 H                     0.164030       0.078641
      9 H                     0.163966       0.004925
     10 H                     0.140222       0.000135
     11 H                     0.143437      -0.000139
     12 C                    -0.110680       0.002927
     13 H                     0.153231       0.000480
  --------------------------------------------------------
  Sum of atomic charges =    -0.000000

                    Cartesian Multipole Moments
 -----------------------------------------------------------------
    Charge (ESU x 10^10)
                -0.0000
    Dipole Moment (Debye)
         X      -0.9632      Y      -0.6221      Z       0.9950
       Tot       1.5181
    Quadrupole Moments (Debye-Ang)
        XX     -39.3456     XY      -4.3713     YY     -37.4957
        XZ       0.0407     YZ       1.5201     ZZ     -40.8851

 Total job time:  69.25s(wall), 166.56s(cpu)
        *  Thank you very much for using Q-Chem.  Have a nice day.  *
