 Q-Chem 5.0, Q-Chem, Inc., Pleasanton, CA (2017)
 Q-Chem 5.0.2 for Intel X86 EM64T Linux

User input:
--------------------------------------------------------------
$molecule
0 2
C        0.9327496154    0.1509550163    0.3465291766
C        1.0644469533   -1.1312007005   -0.4808630164
C       -0.0170161168   -1.8760574933   -0.5483727795
C       -1.3089864745    0.8903444688    0.3793148352
C       -0.4340963717    1.7272872441   -0.4210101310
N        0.8000649916    1.3722995682   -0.4503065900
H        1.8626320430    0.2877496458    0.9326189468
H        2.0159680678   -1.3982731507   -0.9467818467
H       -0.3249545460   -2.8041374809   -1.0187684640
H       -2.3946049199    0.9555296561    0.3880385520
H       -0.7750245053    2.6431793825   -0.9081502615
C       -0.5397235176   -0.0597518050    0.9828695796
H       -0.9358023642   -0.7826336659    1.6885674101
$end

$rem
method                b3lyp
basis                 6-31g(d)
unrestricted          true
symmetry              off
sym_ignore            true
incdft                false
incfock               0
scf_convergence       6
thresh                14
jobtype               sp
scf_guess             read
scf_algorithm         diis
max_scf_cycles        100
stability_analysis    true
max_cis_cycles        100
cis_n_roots           4
$end

--------------------------------------------------------------

             Standard Nuclear Orientation (Angstroms)
    I     Atom           X                Y                Z
 ----------------------------------------------------------------
    1      C       0.9327496154     0.1509550163     0.3465291766
    2      C       1.0644469533    -1.1312007005    -0.4808630164
    3      C      -0.0170161168    -1.8760574933    -0.5483727795
    4      C      -1.3089864745     0.8903444688     0.3793148352
    5      C      -0.4340963717     1.7272872441    -0.4210101310
    6      N       0.8000649916     1.3722995682    -0.4503065900
    7      H       1.8626320430     0.2877496458     0.9326189468
    8      H       2.0159680678    -1.3982731507    -0.9467818467
    9      H      -0.3249545460    -2.8041374809    -1.0187684640
   10      H      -2.3946049199     0.9555296561     0.3880385520
   11      H      -0.7750245053     2.6431793825    -0.9081502615
   12      C      -0.5397235176    -0.0597518050     0.9828695796
   13      H      -0.9358023642    -0.7826336659     1.6885674101
 ----------------------------------------------------------------

    2    -286.8279571125      3.26E-09 Convergence criterion met
 Total energy in the final basis set = -286.82795711

         TDDFT/TDA Excitation Energies
 ---------------------------------------------------

 Excited state   1: excitation energy (eV) =    2.9225
 Total energy for state  1:                  -286.72055686 au
    <S**2>     :  1.6315
    Trans. Mom.:  0.0741 X  -0.0570 Y  -0.0718 Z
    Strength   :     0.0009945999
    D( 23) --> V(  1) amplitude =  0.1677 alpha
    S(  1) --> V(  1) amplitude =  0.7256 alpha
    D( 23) --> V(  1) amplitude = -0.1977 beta
    D( 24) --> S(  1) amplitude = -0.5444 beta
    D( 24) --> V(  1) amplitude = -0.2093 beta

 Excited state   2: excitation energy (eV) =    3.1913
 Total energy for state  2:                  -286.71068031 au
    <S**2>     :  0.9590
    Trans. Mom.:  0.0206 X  -0.0842 Y  -0.0605 Z
    Strength   :     0.0008741282
    S(  1) --> V(  1) amplitude = -0.2531 alpha
    S(  1) --> V(  2) amplitude = -0.1827 alpha
    D( 22) --> S(  1) amplitude =  0.4763 beta
    D( 23) --> S(  1) amplitude =  0.5593 beta
    D( 24) --> S(  1) amplitude = -0.5208 beta
    D( 24) --> V(  1) amplitude =  0.2125 beta

 Excited state   3: excitation energy (eV) =    3.7640
 Total energy for state  3:                  -286.68963206 au
    <S**2>     :  1.8111
    Trans. Mom.:  0.0482 X  -0.0776 Y  -0.0003 Z
    Strength   :     0.0007700611
    D( 24) --> V(  1) amplitude = -0.3516 alpha
    D( 22) --> S(  1) amplitude =  0.5773 beta
    D( 23) --> S(  1) amplitude = -0.5349 beta
    D( 23) --> V(  1) amplitude = -0.3315 beta
    D( 24) --> V(  1) amplitude =  0.2636 beta

 Excited state   4: excitation energy (eV) =    4.0254
 Total energy for state  4:                  -286.68002652 au
    <S**2>     :  0.9021
    Trans. Mom.: -0.0884 X   0.6346 Y   0.1173 Z
    Strength   :     0.0418409274
    D( 23) --> V(  1) amplitude = -0.1503 alpha
    S(  1) --> V(  1) amplitude =  0.5004 alpha
    S(  1) --> V(  2) amplitude = -0.4117 alpha
    D( 22) --> S(  1) amplitude =  0.1915 beta
    D( 23) --> S(  1) amplitude =  0.3655 beta
    D( 24) --> S(  1) amplitude =  0.5458 beta

 ---------------------------------------------------

                    Orbital Energies (a.u.)
 --------------------------------------------------------------

 Alpha MOs
 -- Occupied --
-14.321 -10.235 -10.222 -10.212 -10.205 -10.200 -10.195  -0.941
 -0.793  -0.760  -0.692  -0.599  -0.551  -0.529  -0.512  -0.475
 -0.426  -0.413  -0.395  -0.359  -0.325  -0.282  -0.270  -0.257
 -0.207

 Beta MOs
 -- Occupied --
-14.319 -10.234 -10.223 -10.213 -10.202 -10.193 -10.190  -0.939
 -0.784  -0.757  -0.683  -0.592  -0.547  -0.521  -0.509  -0.466
 -0.418  -0.411  -0.394  -0.356  -0.319  -0.273  -0.255  -0.249

          Ground-State Mulliken Net Atomic Charges

     Atom                 Charge (a.u.)    Spin (a.u.)
  --------------------------------------------------------
      1 C                    -0.059952       0.045071
      2 C                    -0.108421      -0.156961
      3 C                    -0.174544       0.960185
      4 C                    -0.122987       0.144220
      5 C                     0.063859      -0.044838
      6 N                    -0.361203       0.074443
      7 H                     0.162650       0.001604
      8 H                     0.153510       0.061020
      9 H                     0.154336       0.012716
     10 H                     0.143032      -0.006725
     11 H                     0.141689       0.001363
     12 C                    -0.151689      -0.100311
     13 H                     0.159718       0.008212
  --------------------------------------------------------
  Sum of atomic charges =    -0.000000

                    Cartesian Multipole Moments
 -----------------------------------------------------------------
    Charge (ESU x 10^10)
                -0.0000
    Dipole Moment (Debye)
         X      -1.1924      Y      -1.1605      Z       0.7219
       Tot       1.8137
    Quadrupole Moments (Debye-Ang)
        XX     -38.0733     XY      -3.7499     YY     -39.4717
        XZ       0.9349     YZ       1.0271     ZZ     -41.1816

 Total job time:  103.77s(wall), 92.62s(cpu)
        *  Thank you very much for using Q-Chem.  Have a nice day.  *
