 Q-Chem 5.0, Q-Chem, Inc., Pleasanton, CA (2017)
 Q-Chem 5.0.2 for Intel X86 EM64T Linux

User input:
--------------------------------------------------------------
$molecule
0 2
C        0.5790544799   -0.0352893116    0.2311747782
C        0.8307935072   -1.2536009814   -0.6523237532
C        0.7682008494   -2.5052669198   -0.2609792757
C       -1.3102393635    1.2579465512    0.5061931094
C       -0.2877865073    1.9236155324   -0.3163840418
N        0.7783120848    1.2206772000   -0.5076226091
H        1.3236673354   -0.0396890026    1.0433333656
H        1.0868829714   -1.0153558992   -1.6907845300
H        0.9040669756   -3.4887008517   -0.6893610225
H       -2.2756881208    1.6714468289    0.7730542678
H       -0.3860945744    2.9185566255   -0.7462793586
C       -0.8034700230    0.0535144506    0.8332604179
H       -1.2620467596   -0.7325635364    1.4204040629
$end

$rem
method                b3lyp
basis                 6-31+g(d,p)
unrestricted          true
symmetry              off
sym_ignore            true
incdft                false
incfock               0
scf_convergence       8
thresh                14
jobtype               freq
scf_guess             read
scf_algorithm         diis
max_scf_cycles        100
$end

--------------------------------------------------------------

             Standard Nuclear Orientation (Angstroms)
    I     Atom           X                Y                Z
 ----------------------------------------------------------------
    1      C       0.5790544799    -0.0352893116     0.2311747782
    2      C       0.8307935072    -1.2536009814    -0.6523237532
    3      C       0.7682008494    -2.5052669198    -0.2609792757
    4      C      -1.3102393635     1.2579465512     0.5061931094
    5      C      -0.2877865073     1.9236155324    -0.3163840418
    6      N       0.7783120848     1.2206772000    -0.5076226091
    7      H       1.3236673354    -0.0396890026     1.0433333656
    8      H       1.0868829714    -1.0153558992    -1.6907845300
    9      H       0.9040669756    -3.4887008517    -0.6893610225
   10      H      -2.2756881208     1.6714468289     0.7730542678
   11      H      -0.3860945744     2.9185566255    -0.7462793586
   12      C      -0.8034700230     0.0535144506     0.8332604179
   13      H      -1.2620467596    -0.7325635364     1.4204040629
 ----------------------------------------------------------------

    2    -286.8730185626      1.61E-10 Convergence criterion met
 Total energy in the final basis set = -286.87301856

                    Orbital Energies (a.u.)
 --------------------------------------------------------------

 Alpha MOs
 -- Occupied --
-14.336 -10.239 -10.237 -10.222 -10.215 -10.214 -10.208  -0.956
 -0.802  -0.777  -0.716  -0.602  -0.567  -0.553  -0.517  -0.480
 -0.453  -0.415  -0.408  -0.387  -0.340  -0.285  -0.279  -0.264
 -0.246

 Beta MOs
 -- Occupied --
-14.336 -10.238 -10.237 -10.217 -10.214 -10.208 -10.207  -0.956
 -0.794  -0.776  -0.705  -0.593  -0.566  -0.543  -0.516  -0.471
 -0.444  -0.414  -0.405  -0.385  -0.337  -0.280  -0.276  -0.261

          Ground-State Mulliken Net Atomic Charges

     Atom                 Charge (a.u.)    Spin (a.u.)
  --------------------------------------------------------
      1 C                    -0.098440       0.083574
      2 C                    -0.007202      -0.311777
      3 C                    -0.327855       1.170424
      4 C                    -0.049746      -0.000932
      5 C                    -0.092623      -0.002319
      6 N                    -0.204057      -0.003518
      7 H                     0.191812      -0.004707
      8 H                     0.169406       0.080911
      9 H                     0.154754       0.005925
     10 H                     0.135144      -0.000149
     11 H                     0.132133       0.000467
     12 C                    -0.150239      -0.017706
     13 H                     0.146914      -0.000194
  --------------------------------------------------------
  Sum of atomic charges =    -0.000000

                    Cartesian Multipole Moments
 -----------------------------------------------------------------
    Charge (ESU x 10^10)
                -0.0000
    Dipole Moment (Debye)
         X      -1.5890      Y      -0.4447      Z       0.6349
       Tot       1.7680
    Quadrupole Moments (Debye-Ang)
        XX     -43.1075     XY      -4.5600     YY     -37.9284
        XZ      -0.1285     YZ       1.7962     ZZ     -41.6998

 Frequency:      -104.91                 156.17                 221.06
 Force Cnst:      0.0161                 0.0468                 0.0889
 Red. Mass:       2.4885                 3.2547                 3.0865
 IR Intens:        6.610                  6.213                  7.564
 Frequency:       435.41                 516.94                 577.23
 Force Cnst:      0.4073                 0.3771                 0.5818
 Red. Mass:       3.6462                 2.3949                 2.9638
 IR Intens:        2.199                 17.093                 14.476
 Frequency:       630.33                 717.87                 780.69
 Force Cnst:      0.3479                 0.4302                 0.4940
 Red. Mass:       1.4863                 1.4167                 1.3755
 IR Intens:       32.679                 23.598                 29.993
 Frequency:       818.49                 843.54                 856.64
 Force Cnst:      0.7445                 1.5787                 1.9080
 Red. Mass:       1.8863                 3.7656                 4.4130
 IR Intens:       18.264                 14.649                 16.579
 Frequency:       914.21                 940.12                 974.33
 Force Cnst:      1.1444                 0.6530                 0.8755
 Red. Mass:       2.3240                 1.2540                 1.5653
 IR Intens:        6.998                  7.190                  4.257
 Frequency:       997.28                1024.85                1082.78
 Force Cnst:      1.2978                 1.7088                 1.1260
 Red. Mass:       2.2147                 2.7614                 1.6302
 IR Intens:        4.018                 32.305                  1.839
 Frequency:      1127.06                1203.31                1223.99
 Force Cnst:      1.0418                 1.1027                 1.4030
 Red. Mass:       1.3921                 1.2926                 1.5895
 IR Intens:        3.825                  0.713                  1.742
 Frequency:      1255.17                1315.70                1371.71
 Force Cnst:      1.2669                 1.4988                 2.0299
 Red. Mass:       1.3648                 1.4695                 1.8310
 IR Intens:        8.025                  0.732                 14.164
 Frequency:      1551.04                1653.94                1670.16
 Force Cnst:     11.8777                10.0584                12.0182
 Red. Mass:       8.3798                 6.2408                 7.3126
 IR Intens:       15.863                  7.987                  9.504
 Frequency:      3016.45                3073.78                3180.98
 Force Cnst:      5.7952                 6.0298                 6.5158
 Red. Mass:       1.0810                 1.0832                 1.0929
 IR Intens:        1.541                  5.907                 24.857
 Frequency:      3228.55                3252.68                3269.90
 Force Cnst:      6.6876                 6.8916                 6.9569
 Red. Mass:       1.0890                 1.1056                 1.1043
 IR Intens:        5.545                  3.765                  0.827

 STANDARD THERMODYNAMIC QUANTITIES AT   298.15 K  AND     1.00 ATM

   This Molecule has  1 Imaginary Frequencies
   Zero point vibrational energy:       62.733 kcal/mol

   Atom    1 Element C  Has Mass   12.00000
   Atom    2 Element C  Has Mass   12.00000
   Atom    3 Element C  Has Mass   12.00000
   Atom    4 Element C  Has Mass   12.00000
   Atom    5 Element C  Has Mass   12.00000
   Atom    6 Element N  Has Mass   14.00307
   Atom    7 Element H  Has Mass    1.00783
   Atom    8 Element H  Has Mass    1.00783
   Atom    9 Element H  Has Mass    1.00783
   Atom   10 Element H  Has Mass    1.00783
   Atom   11 Element H  Has Mass    1.00783
   Atom   12 Element C  Has Mass   12.00000
   Atom   13 Element H  Has Mass    1.00783
   Molecular Mass:    92.050050 amu
   Principal axes and moments of inertia in amu*Bohr^2:
                             1           2           3
    Eigenvalues --      261.26549   845.99201  1038.17733
          X              -0.36238     0.73529     0.57274
          Y               0.92477     0.36023     0.12266
          Z               0.11613    -0.57409     0.81051
   Rotational Symmetry Number is   1
   The Molecule is an Asymmetric Top
   Translational Enthalpy:        0.889 kcal/mol
   Rotational Enthalpy:           0.889 kcal/mol
   Vibrational Enthalpy:         64.421 kcal/mol
   gas constant (RT):             0.592 kcal/mol
   Translational Entropy:        39.471  cal/mol.K
   Rotational Entropy:           26.931  cal/mol.K
   Vibrational Entropy:           8.772  cal/mol.K

   Total Enthalpy:               66.791 kcal/mol
   Total Entropy:                75.174  cal/mol.K

 Total job time:  526.04s(wall), 511.41s(cpu)
        *  Thank you very much for using Q-Chem.  Have a nice day.  *
