 Q-Chem 5.0, Q-Chem, Inc., Pleasanton, CA (2017)
 Q-Chem 5.0.2 for Intel X86 EM64T Linux

User input:
--------------------------------------------------------------
$molecule
0 2
C        0.5858571679   -0.0330371068    0.2406904452
C        0.8271227805   -1.2496449176   -0.6504958050
C        0.7668773048   -2.4996108904   -0.2579918086
C       -1.3099222646    1.2517377402    0.5002193020
C       -0.2844451446    1.9163148678   -0.3185843456
N        0.7874998005    1.2225018772   -0.4991511003
H        1.3309318193   -0.0428711435    1.0521560137
H        1.0675515572   -1.0063435902   -1.6913914663
H        0.8974958539   -3.4791052438   -0.6991635327
H       -2.2788433693    1.6637830810    0.7586592878
H       -0.3876965091    2.9094170082   -0.7543724116
C       -0.7995991612    0.0543137503    0.8374678093
H       -1.2571769802   -0.7321647468    1.4256430232
$end

$rem
method                b3lyp
basis                 6-31+g(d,p)
unrestricted          true
symmetry              off
sym_ignore            true
incdft                false
incfock               0
scf_convergence       6
thresh                14
jobtype               sp
scf_guess             read
scf_algorithm         diis
max_scf_cycles        100
stability_analysis    true
max_cis_cycles        100
cis_n_roots           4
$end

--------------------------------------------------------------

             Standard Nuclear Orientation (Angstroms)
    I     Atom           X                Y                Z
 ----------------------------------------------------------------
    1      C       0.5858571679    -0.0330371068     0.2406904452
    2      C       0.8271227805    -1.2496449176    -0.6504958050
    3      C       0.7668773048    -2.4996108904    -0.2579918086
    4      C      -1.3099222646     1.2517377402     0.5002193020
    5      C      -0.2844451446     1.9163148678    -0.3185843456
    6      N       0.7874998005     1.2225018772    -0.4991511003
    7      H       1.3309318193    -0.0428711435     1.0521560137
    8      H       1.0675515572    -1.0063435902    -1.6913914663
    9      H       0.8974958539    -3.4791052438    -0.6991635327
   10      H      -2.2788433693     1.6637830810     0.7586592878
   11      H      -0.3876965091     2.9094170082    -0.7543724116
   12      C      -0.7995991612     0.0543137503     0.8374678093
   13      H      -1.2571769802    -0.7321647468     1.4256430232
 ----------------------------------------------------------------

    2    -286.8729768980      1.63E-09 Convergence criterion met
 Total energy in the final basis set = -286.87297690

         TDDFT/TDA Excitation Energies
 ---------------------------------------------------

 Excited state   1: excitation energy (eV) =    2.8414
 Total energy for state  1:                  -286.76855595 au
    <S**2>     :  0.7696
    Trans. Mom.: -0.1229 X  -0.0230 Y  -0.0292 Z
    Strength   :     0.0011477330
    D( 22) --> S(  1) amplitude =  0.4194 beta
    D( 23) --> S(  1) amplitude =  0.5396 beta
    D( 24) --> S(  1) amplitude =  0.7049 beta

 Excited state   2: excitation energy (eV) =    3.3832
 Total energy for state  2:                  -286.74864835 au
    <S**2>     :  2.6780
    Trans. Mom.:  0.0092 X   0.0000 Y   0.0040 Z
    Strength   :     0.0000082825
    D( 24) --> V(  1) amplitude = -0.6183 alpha
    S(  1) --> V(  1) amplitude =  0.1987 alpha
    D( 23) --> S(  1) amplitude = -0.1578 beta
    D( 23) --> V(  1) amplitude = -0.2768 beta
    D( 24) --> V(  1) amplitude =  0.5991 beta

 Excited state   3: excitation energy (eV) =    3.9478
 Total energy for state  3:                  -286.72789957 au
    <S**2>     :  0.8778
    Trans. Mom.:  0.0563 X  -0.0773 Y   0.0211 Z
    Strength   :     0.0009273023
    D( 22) --> S(  1) amplitude = -0.3324 beta
    D( 23) --> S(  1) amplitude = -0.5993 beta
    D( 24) --> S(  1) amplitude =  0.6835 beta
    D( 24) --> V(  1) amplitude = -0.1674 beta

 Excited state   4: excitation energy (eV) =    4.0817
 Total energy for state  4:                  -286.72297859 au
    <S**2>     :  2.2523
    Trans. Mom.: -0.0020 X   0.0061 Y  -0.0137 Z
    Strength   :     0.0000228922
    D( 23) --> V(  1) amplitude =  0.5255 alpha
    S(  1) --> V(  1) amplitude =  0.2000 alpha
    D( 22) --> S(  1) amplitude =  0.4449 beta
    D( 22) --> V(  1) amplitude =  0.4434 beta
    D( 23) --> S(  1) amplitude = -0.2332 beta
    D( 23) --> V(  1) amplitude = -0.3797 beta

 ---------------------------------------------------

                    Orbital Energies (a.u.)
 --------------------------------------------------------------

 Alpha MOs
 -- Occupied --
-14.336 -10.239 -10.236 -10.222 -10.215 -10.214 -10.208  -0.957
 -0.803  -0.778  -0.715  -0.601  -0.567  -0.553  -0.518  -0.480
 -0.453  -0.415  -0.408  -0.386  -0.340  -0.286  -0.279  -0.264
 -0.247

 Beta MOs
 -- Occupied --
-14.336 -10.238 -10.236 -10.217 -10.214 -10.208 -10.207  -0.957
 -0.794  -0.776  -0.705  -0.593  -0.566  -0.543  -0.516  -0.471
 -0.444  -0.413  -0.405  -0.384  -0.337  -0.281  -0.277  -0.261

          Ground-State Mulliken Net Atomic Charges

     Atom                 Charge (a.u.)    Spin (a.u.)
  --------------------------------------------------------
      1 C                    -0.092507       0.083761
      2 C                    -0.008655      -0.312551
      3 C                    -0.327538       1.169693
      4 C                    -0.048658      -0.000812
      5 C                    -0.093374      -0.002588
      6 N                    -0.205440      -0.003546
      7 H                     0.190687      -0.004643
      8 H                     0.169503       0.080902
      9 H                     0.154149       0.007204
     10 H                     0.135283      -0.000149
     11 H                     0.131656       0.000492
     12 C                    -0.151921      -0.017565
     13 H                     0.146814      -0.000197
  --------------------------------------------------------
  Sum of atomic charges =     0.000000

                    Cartesian Multipole Moments
 -----------------------------------------------------------------
    Charge (ESU x 10^10)
                 0.0000
    Dipole Moment (Debye)
         X      -1.6167      Y      -0.4524      Z       0.6115
       Tot       1.7867
    Quadrupole Moments (Debye-Ang)
        XX     -43.1414     XY      -4.5389     YY     -38.0633
        XZ      -0.0948     YZ       1.7758     ZZ     -41.6173

 Total job time:  211.90s(wall), 196.99s(cpu)
        *  Thank you very much for using Q-Chem.  Have a nice day.  *
