 Q-Chem 5.0, Q-Chem, Inc., Pleasanton, CA (2017)
 Q-Chem 5.0.2 for Intel X86 EM64T Linux

User input:
--------------------------------------------------------------
$molecule
0 2
C        0.9327496154    0.1509550163    0.3465291766
C        1.0644469533   -1.1312007005   -0.4808630164
C       -0.0170161168   -1.8760574933   -0.5483727795
C       -1.3089864745    0.8903444688    0.3793148352
C       -0.4340963717    1.7272872441   -0.4210101310
N        0.8000649916    1.3722995682   -0.4503065900
H        1.8626320430    0.2877496458    0.9326189468
H        2.0159680678   -1.3982731507   -0.9467818467
H       -0.3249545460   -2.8041374809   -1.0187684640
H       -2.3946049199    0.9555296561    0.3880385520
H       -0.7750245053    2.6431793825   -0.9081502615
C       -0.5397235176   -0.0597518050    0.9828695796
H       -0.9358023642   -0.7826336659    1.6885674101
$end

$rem
method                b3lyp
basis                 6-31g(d)
unrestricted          true
symmetry              off
sym_ignore            true
incdft                false
incfock               0
scf_convergence       8
thresh                14
jobtype               freq
scf_guess             read
scf_algorithm         diis
max_scf_cycles        100
$end

--------------------------------------------------------------

             Standard Nuclear Orientation (Angstroms)
    I     Atom           X                Y                Z
 ----------------------------------------------------------------
    1      C       0.9327496154     0.1509550163     0.3465291766
    2      C       1.0644469533    -1.1312007005    -0.4808630164
    3      C      -0.0170161168    -1.8760574933    -0.5483727795
    4      C      -1.3089864745     0.8903444688     0.3793148352
    5      C      -0.4340963717     1.7272872441    -0.4210101310
    6      N       0.8000649916     1.3722995682    -0.4503065900
    7      H       1.8626320430     0.2877496458     0.9326189468
    8      H       2.0159680678    -1.3982731507    -0.9467818467
    9      H      -0.3249545460    -2.8041374809    -1.0187684640
   10      H      -2.3946049199     0.9555296561     0.3880385520
   11      H      -0.7750245053     2.6431793825    -0.9081502615
   12      C      -0.5397235176    -0.0597518050     0.9828695796
   13      H      -0.9358023642    -0.7826336659     1.6885674101
 ----------------------------------------------------------------

    2    -286.8279571125      2.13E-09 Convergence criterion met
 Total energy in the final basis set = -286.82795711

                    Orbital Energies (a.u.)
 --------------------------------------------------------------

 Alpha MOs
 -- Occupied --
-14.321 -10.235 -10.222 -10.212 -10.205 -10.200 -10.195  -0.941
 -0.793  -0.760  -0.692  -0.599  -0.551  -0.529  -0.512  -0.475
 -0.426  -0.413  -0.395  -0.359  -0.325  -0.282  -0.270  -0.257
 -0.207

 Beta MOs
 -- Occupied --
-14.319 -10.234 -10.223 -10.213 -10.202 -10.193 -10.190  -0.939
 -0.784  -0.757  -0.683  -0.592  -0.547  -0.521  -0.509  -0.466
 -0.418  -0.411  -0.394  -0.356  -0.319  -0.273  -0.255  -0.249

          Ground-State Mulliken Net Atomic Charges

     Atom                 Charge (a.u.)    Spin (a.u.)
  --------------------------------------------------------
      1 C                    -0.059952       0.045070
      2 C                    -0.108421      -0.156959
      3 C                    -0.174544       0.960183
      4 C                    -0.122987       0.144223
      5 C                     0.063859      -0.044841
      6 N                    -0.361203       0.074447
      7 H                     0.162650       0.001604
      8 H                     0.153510       0.061020
      9 H                     0.154336       0.012716
     10 H                     0.143032      -0.006725
     11 H                     0.141689       0.001364
     12 C                    -0.151689      -0.100315
     13 H                     0.159718       0.008212
  --------------------------------------------------------
  Sum of atomic charges =    -0.000000

                    Cartesian Multipole Moments
 -----------------------------------------------------------------
    Charge (ESU x 10^10)
                 0.0000
    Dipole Moment (Debye)
         X      -1.1924      Y      -1.1605      Z       0.7219
       Tot       1.8137
    Quadrupole Moments (Debye-Ang)
        XX     -38.0733     XY      -3.7499     YY     -39.4717
        XZ       0.9349     YZ       1.0271     ZZ     -41.1816

 Frequency:        73.19                 147.14                 263.11
 Force Cnst:      0.0136                 0.0465                 0.1110
 Red. Mass:       4.2969                 3.6424                 2.7218
 IR Intens:        1.102                  0.705                  6.806
 Frequency:       337.07                 570.61                 601.55
 Force Cnst:      0.2441                 0.4737                 0.6545
 Red. Mass:       3.6466                 2.4695                 3.0697
 IR Intens:        5.747                 15.094                  0.967
 Frequency:       660.76                 708.06                 745.14
 Force Cnst:      0.4137                 0.7640                 0.4302
 Red. Mass:       1.6083                 2.5863                 1.3150
 IR Intens:       31.006                 14.995                 37.455
 Frequency:       801.39                 832.96                 855.24
 Force Cnst:      1.0274                 0.6173                 1.2613
 Red. Mass:       2.7152                 1.5101                 2.9268
 IR Intens:       20.764                  1.347                 25.270
 Frequency:       891.00                 908.36                 963.49
 Force Cnst:      1.0253                 0.6612                 1.0315
 Red. Mass:       2.1919                 1.3601                 1.8860
 IR Intens:        6.142                  2.592                  6.148
 Frequency:       993.33                1028.23                1038.53
 Force Cnst:      1.1445                 1.5521                 1.2585
 Red. Mass:       1.9687                 2.4916                 1.9804
 IR Intens:       20.837                 18.109                  3.520
 Frequency:      1103.57                1201.97                1250.38
 Force Cnst:      0.8860                 1.2964                 1.2063
 Red. Mass:       1.2348                 1.5230                 1.3096
 IR Intens:        2.181                 14.622                  8.917
 Frequency:      1282.65                1312.45                1387.54
 Force Cnst:      1.1731                 1.3956                 2.0525
 Red. Mass:       1.2102                 1.3752                 1.8094
 IR Intens:        1.021                  1.373                 16.638
 Frequency:      1506.92                1662.12                1678.76
 Force Cnst:      8.6088                10.2248                11.1801
 Red. Mass:       6.4345                 6.2817                 6.7331
 IR Intens:       17.860                  8.870                  5.146
 Frequency:      2986.26                3116.50                3152.79
 Force Cnst:      5.6933                 6.2096                 6.3955
 Red. Mass:       1.0836                 1.0851                 1.0920
 IR Intens:       13.110                 19.755                 38.452
 Frequency:      3204.11                3231.60                3239.25
 Force Cnst:      6.6058                 6.8060                 6.7892
 Red. Mass:       1.0921                 1.1061                 1.0982
 IR Intens:        9.970                  4.848                  1.634

 STANDARD THERMODYNAMIC QUANTITIES AT   298.15 K  AND     1.00 ATM

   This Molecule has  0 Imaginary Frequencies
   Zero point vibrational energy:       62.524 kcal/mol

   Atom    1 Element C  Has Mass   12.00000
   Atom    2 Element C  Has Mass   12.00000
   Atom    3 Element C  Has Mass   12.00000
   Atom    4 Element C  Has Mass   12.00000
   Atom    5 Element C  Has Mass   12.00000
   Atom    6 Element N  Has Mass   14.00307
   Atom    7 Element H  Has Mass    1.00783
   Atom    8 Element H  Has Mass    1.00783
   Atom    9 Element H  Has Mass    1.00783
   Atom   10 Element H  Has Mass    1.00783
   Atom   11 Element H  Has Mass    1.00783
   Atom   12 Element C  Has Mass   12.00000
   Atom   13 Element H  Has Mass    1.00783
   Molecular Mass:    92.050050 amu
   Principal axes and moments of inertia in amu*Bohr^2:
                             1           2           3
    Eigenvalues --      346.10175   645.39109   810.46500
          X              -0.32040     0.87086     0.37274
          Y               0.94165     0.33565     0.02522
          Z               0.10315    -0.35907     0.92759
   Rotational Symmetry Number is   1
   The Molecule is an Asymmetric Top
   Translational Enthalpy:        0.889 kcal/mol
   Rotational Enthalpy:           0.889 kcal/mol
   Vibrational Enthalpy:         64.726 kcal/mol
   gas constant (RT):             0.592 kcal/mol
   Translational Entropy:        39.471  cal/mol.K
   Rotational Entropy:           26.695  cal/mol.K
   Vibrational Entropy:          12.937  cal/mol.K

   Total Enthalpy:               67.096 kcal/mol
   Total Entropy:                79.103  cal/mol.K

 Total job time:  265.12s(wall), 253.67s(cpu)
        *  Thank you very much for using Q-Chem.  Have a nice day.  *
