 Q-Chem 5.0, Q-Chem, Inc., Pleasanton, CA (2017)
 Q-Chem 5.0.2 for Intel X86 EM64T Linux

User input:
--------------------------------------------------------------
$molecule
0 2
C        0.5858571679   -0.0330371068    0.2406904452
C        0.8271227805   -1.2496449176   -0.6504958050
C        0.7668773048   -2.4996108904   -0.2579918086
C       -1.3099222646    1.2517377402    0.5002193020
C       -0.2844451446    1.9163148678   -0.3185843456
N        0.7874998005    1.2225018772   -0.4991511003
H        1.3309318193   -0.0428711435    1.0521560137
H        1.0675515572   -1.0063435902   -1.6913914663
H        0.8974958539   -3.4791052438   -0.6991635327
H       -2.2788433693    1.6637830810    0.7586592878
H       -0.3876965091    2.9094170082   -0.7543724116
C       -0.7995991612    0.0543137503    0.8374678093
H       -1.2571769802   -0.7321647468    1.4256430232
$end

$rem
method                b3lyp
basis                 6-31+g(d,p)
unrestricted          true
symmetry              off
sym_ignore            true
incdft                false
incfock               0
scf_convergence       8
thresh                14
jobtype               freq
scf_guess             read
scf_algorithm         diis
max_scf_cycles        100
$end

--------------------------------------------------------------

             Standard Nuclear Orientation (Angstroms)
    I     Atom           X                Y                Z
 ----------------------------------------------------------------
    1      C       0.5858571679    -0.0330371068     0.2406904452
    2      C       0.8271227805    -1.2496449176    -0.6504958050
    3      C       0.7668773048    -2.4996108904    -0.2579918086
    4      C      -1.3099222646     1.2517377402     0.5002193020
    5      C      -0.2844451446     1.9163148678    -0.3185843456
    6      N       0.7874998005     1.2225018772    -0.4991511003
    7      H       1.3309318193    -0.0428711435     1.0521560137
    8      H       1.0675515572    -1.0063435902    -1.6913914663
    9      H       0.8974958539    -3.4791052438    -0.6991635327
   10      H      -2.2788433693     1.6637830810     0.7586592878
   11      H      -0.3876965091     2.9094170082    -0.7543724116
   12      C      -0.7995991612     0.0543137503     0.8374678093
   13      H      -1.2571769802    -0.7321647468     1.4256430232
 ----------------------------------------------------------------

    2    -286.8729768982      2.48E-09 Convergence criterion met
 Total energy in the final basis set = -286.87297690

                    Orbital Energies (a.u.)
 --------------------------------------------------------------

 Alpha MOs
 -- Occupied --
-14.336 -10.239 -10.236 -10.222 -10.215 -10.214 -10.208  -0.957
 -0.803  -0.778  -0.715  -0.601  -0.567  -0.553  -0.518  -0.480
 -0.453  -0.415  -0.408  -0.386  -0.340  -0.286  -0.279  -0.264
 -0.247

 Beta MOs
 -- Occupied --
-14.336 -10.238 -10.236 -10.217 -10.214 -10.208 -10.207  -0.957
 -0.794  -0.776  -0.705  -0.593  -0.566  -0.543  -0.516  -0.471
 -0.444  -0.413  -0.405  -0.384  -0.337  -0.281  -0.277  -0.261

          Ground-State Mulliken Net Atomic Charges

     Atom                 Charge (a.u.)    Spin (a.u.)
  --------------------------------------------------------
      1 C                    -0.092507       0.083760
      2 C                    -0.008655      -0.312549
      3 C                    -0.327538       1.169690
      4 C                    -0.048658      -0.000832
      5 C                    -0.093374      -0.002571
      6 N                    -0.205440      -0.003563
      7 H                     0.190687      -0.004643
      8 H                     0.169503       0.080902
      9 H                     0.154149       0.007204
     10 H                     0.135283      -0.000148
     11 H                     0.131656       0.000491
     12 C                    -0.151921      -0.017543
     13 H                     0.146814      -0.000199
  --------------------------------------------------------
  Sum of atomic charges =     0.000000

                    Cartesian Multipole Moments
 -----------------------------------------------------------------
    Charge (ESU x 10^10)
                 0.0000
    Dipole Moment (Debye)
         X      -1.6167      Y      -0.4524      Z       0.6115
       Tot       1.7867
    Quadrupole Moments (Debye-Ang)
        XX     -43.1414     XY      -4.5389     YY     -38.0633
        XZ      -0.0948     YZ       1.7758     ZZ     -41.6173

 Frequency:      -107.34                 151.20                 221.10
 Force Cnst:      0.0171                 0.0439                 0.0887
 Red. Mass:       2.5239                 3.2583                 3.0810
 IR Intens:        6.070                  5.823                  7.769
 Frequency:       434.97                 516.35                 577.16
 Force Cnst:      0.4108                 0.3805                 0.5980
 Red. Mass:       3.6855                 2.4222                 3.0467
 IR Intens:        2.167                 16.416                 13.766
 Frequency:       633.78                 722.92                 783.95
 Force Cnst:      0.3500                 0.4375                 0.5018
 Red. Mass:       1.4791                 1.4207                 1.3857
 IR Intens:       34.011                 25.605                 26.701
 Frequency:       823.46                 842.91                 857.70
 Force Cnst:      0.7735                 1.5637                 1.7848
 Red. Mass:       1.9360                 3.7353                 4.1179
 IR Intens:       17.933                 14.435                 18.184
 Frequency:       918.53                 943.52                 978.27
 Force Cnst:      1.1264                 0.6553                 0.8811
 Red. Mass:       2.2660                 1.2494                 1.5627
 IR Intens:        7.052                  6.829                  4.082
 Frequency:       998.93                1024.07                1083.06
 Force Cnst:      1.2899                 1.7342                 1.1649
 Red. Mass:       2.1939                 2.8067                 1.6855
 IR Intens:        3.744                 32.565                  1.656
 Frequency:      1127.48                1205.38                1223.35
 Force Cnst:      1.0257                 1.0884                 1.4098
 Red. Mass:       1.3694                 1.2714                 1.5988
 IR Intens:        4.220                  0.846                  1.707
 Frequency:      1255.93                1318.01                1373.35
 Force Cnst:      1.2700                 1.4903                 2.0194
 Red. Mass:       1.3666                 1.4561                 1.8172
 IR Intens:        7.943                  0.590                 14.386
 Frequency:      1560.71                1662.27                1676.15
 Force Cnst:     12.0826                10.2571                12.0620
 Red. Mass:       8.4191                 6.3005                 7.2869
 IR Intens:       16.070                  7.323                 10.160
 Frequency:      3018.61                3075.20                3169.87
 Force Cnst:      5.8045                 6.0361                 6.4707
 Red. Mass:       1.0812                 1.0833                 1.0930
 IR Intens:        1.551                  5.752                 26.441
 Frequency:      3223.82                3248.60                3260.58
 Force Cnst:      6.6679                 6.8767                 6.9176
 Red. Mass:       1.0889                 1.1060                 1.1044
 IR Intens:        5.499                  3.649                  0.861

 STANDARD THERMODYNAMIC QUANTITIES AT   298.15 K  AND     1.00 ATM

   This Molecule has  1 Imaginary Frequencies
   Zero point vibrational energy:       62.774 kcal/mol

   Atom    1 Element C  Has Mass   12.00000
   Atom    2 Element C  Has Mass   12.00000
   Atom    3 Element C  Has Mass   12.00000
   Atom    4 Element C  Has Mass   12.00000
   Atom    5 Element C  Has Mass   12.00000
   Atom    6 Element N  Has Mass   14.00307
   Atom    7 Element H  Has Mass    1.00783
   Atom    8 Element H  Has Mass    1.00783
   Atom    9 Element H  Has Mass    1.00783
   Atom   10 Element H  Has Mass    1.00783
   Atom   11 Element H  Has Mass    1.00783
   Atom   12 Element C  Has Mass   12.00000
   Atom   13 Element H  Has Mass    1.00783
   Molecular Mass:    92.050050 amu
   Principal axes and moments of inertia in amu*Bohr^2:
                             1           2           3
    Eigenvalues --      262.42370   842.12266  1033.05985
          X              -0.36177     0.73785     0.56982
          Y               0.92513     0.35961     0.12170
          Z               0.11511    -0.57119     0.81271
   Rotational Symmetry Number is   1
   The Molecule is an Asymmetric Top
   Translational Enthalpy:        0.889 kcal/mol
   Rotational Enthalpy:           0.889 kcal/mol
   Vibrational Enthalpy:         64.463 kcal/mol
   gas constant (RT):             0.592 kcal/mol
   Translational Entropy:        39.471  cal/mol.K
   Rotational Entropy:           26.926  cal/mol.K
   Vibrational Entropy:           8.811  cal/mol.K

   Total Enthalpy:               66.833 kcal/mol
   Total Entropy:                75.208  cal/mol.K

 Total job time:  521.48s(wall), 508.77s(cpu)
        *  Thank you very much for using Q-Chem.  Have a nice day.  *
