 Q-Chem 5.0, Q-Chem, Inc., Pleasanton, CA (2017)
 Q-Chem 5.0.2 for Intel X86 EM64T Linux

User input:
--------------------------------------------------------------
$molecule
0 2
C        0.5858571679   -0.0330371068    0.2406904452
C        0.8271227805   -1.2496449176   -0.6504958050
C        0.7668773048   -2.4996108904   -0.2579918086
C       -1.3099222646    1.2517377402    0.5002193020
C       -0.2844451446    1.9163148678   -0.3185843456
N        0.7874998005    1.2225018772   -0.4991511003
H        1.3309318193   -0.0428711435    1.0521560137
H        1.0675515572   -1.0063435902   -1.6913914663
H        0.8974958539   -3.4791052438   -0.6991635327
H       -2.2788433693    1.6637830810    0.7586592878
H       -0.3876965091    2.9094170082   -0.7543724116
C       -0.7995991612    0.0543137503    0.8374678093
H       -1.2571769802   -0.7321647468    1.4256430232
$end

$rem
method                b3lyp
basis                 6-31+g(d,p)
unrestricted          true
symmetry              off
sym_ignore            true
incdft                false
incfock               0
scf_convergence       8
thresh                14
jobtype               ts
scf_guess             read
scf_algorithm         diis
max_scf_cycles        100
geom_opt_max_cycles   500
geom_opt_dmax         100
geom_opt_tol_gradient 10
geom_opt_hessian      read
$end

--------------------------------------------------------------

    2    -286.8729768982      7.28E-10 Convergence criterion met
 Total energy in the final basis set = -286.87297690
   13    -286.8730185451      3.15E-09 Convergence criterion met
 Total energy in the final basis set = -286.87301855

             Standard Nuclear Orientation (Angstroms)
    I     Atom           X                Y                Z
 ----------------------------------------------------------------
    1      C       0.5790544799    -0.0352893116     0.2311747782
    2      C       0.8307935072    -1.2536009814    -0.6523237532
    3      C       0.7682008494    -2.5052669198    -0.2609792757
    4      C      -1.3102393635     1.2579465512     0.5061931094
    5      C      -0.2877865073     1.9236155324    -0.3163840418
    6      N       0.7783120848     1.2206772000    -0.5076226091
    7      H       1.3236673354    -0.0396890026     1.0433333656
    8      H       1.0868829714    -1.0153558992    -1.6907845300
    9      H       0.9040669756    -3.4887008517    -0.6893610225
   10      H      -2.2756881208     1.6714468289     0.7730542678
   11      H      -0.3860945744     2.9185566255    -0.7462793586
   12      C      -0.8034700230     0.0535144506     0.8332604179
   13      H      -1.2620467596    -0.7325635364     1.4204040629
 ----------------------------------------------------------------

   10    -286.8730185625      3.13E-09 Convergence criterion met
 Total energy in the final basis set = -286.87301856
 Final energy is   -286.873018562535
 **  OPTIMIZATION CONVERGED  **

                    Orbital Energies (a.u.)
 --------------------------------------------------------------

 Alpha MOs
 -- Occupied --
-14.336 -10.239 -10.237 -10.222 -10.215 -10.214 -10.208  -0.956
 -0.802  -0.777  -0.716  -0.602  -0.567  -0.553  -0.517  -0.480
 -0.453  -0.415  -0.408  -0.387  -0.340  -0.285  -0.279  -0.264
 -0.246

 Beta MOs
 -- Occupied --
-14.336 -10.238 -10.237 -10.217 -10.214 -10.208 -10.207  -0.956
 -0.794  -0.776  -0.705  -0.593  -0.566  -0.543  -0.516  -0.471
 -0.444  -0.414  -0.405  -0.385  -0.337  -0.280  -0.276  -0.261

          Ground-State Mulliken Net Atomic Charges

     Atom                 Charge (a.u.)    Spin (a.u.)
  --------------------------------------------------------
      1 C                    -0.098440       0.083574
      2 C                    -0.007202      -0.311777
      3 C                    -0.327854       1.170424
      4 C                    -0.049746      -0.000933
      5 C                    -0.092623      -0.002319
      6 N                    -0.204057      -0.003519
      7 H                     0.191812      -0.004707
      8 H                     0.169406       0.080911
      9 H                     0.154754       0.005925
     10 H                     0.135144      -0.000149
     11 H                     0.132133       0.000467
     12 C                    -0.150239      -0.017706
     13 H                     0.146914      -0.000194
  --------------------------------------------------------
  Sum of atomic charges =     0.000000

                    Cartesian Multipole Moments
 -----------------------------------------------------------------
    Charge (ESU x 10^10)
                 0.0000
    Dipole Moment (Debye)
         X      -1.5890      Y      -0.4447      Z       0.6349
       Tot       1.7680
    Quadrupole Moments (Debye-Ang)
        XX     -43.1075     XY      -4.5600     YY     -37.9284
        XZ      -0.1285     YZ       1.7962     ZZ     -41.6998

 Total job time:  65.38s(wall), 175.44s(cpu)
        *  Thank you very much for using Q-Chem.  Have a nice day.  *
