 Q-Chem 5.0, Q-Chem, Inc., Pleasanton, CA (2017)
 Q-Chem 5.0.2 for Intel X86 EM64T Linux

User input:
--------------------------------------------------------------
$molecule
0 2
C        1.4686732685    0.4434648827   -0.3530738584
C        0.8844898150   -0.7852997800    0.2158355540
C       -0.7449175472   -0.8064664611    0.1739773918
C       -1.3117588051    0.4547650255   -0.3303380734
C       -0.5481144770    1.5423396026   -0.5757289614
N        0.8460300516    1.5355555592   -0.6348741906
H        2.5303145794    0.3995219587   -0.6079325517
H        1.4411642486   -1.6994013932    0.0000858207
H       -1.2584586499   -1.7272652578   -0.1086158969
H       -2.3826894973    0.4875523101   -0.5153848406
H       -1.0043020908    2.4797194493   -0.8832408489
C        0.0350901728   -0.7972998302    1.4092860838
H        0.0444789317   -1.5271860652    2.2100043717
$end

$rem
method                b3lyp
basis                 6-31g(d)
unrestricted          true
symmetry              off
sym_ignore            true
incdft                false
incfock               0
scf_convergence       8
thresh                14
jobtype               opt
scf_guess             read
scf_algorithm         diis
max_scf_cycles        100
geom_opt_tol_gradient 600
geom_opt_tol_displacement 2400
geom_opt_tol_energy   200
geom_opt_max_cycles   100
$end

--------------------------------------------------------------

    2    -286.8549487882      2.62E-09 Convergence criterion met
 Total energy in the final basis set = -286.85494879

             Standard Nuclear Orientation (Angstroms)
    I     Atom           X                Y                Z
 ----------------------------------------------------------------
    1      C       1.4684278439     0.4432345783    -0.3531187558
    2      C       0.8844102905    -0.7855130425     0.2153517966
    3      C      -0.7449952922    -0.8067945112     0.1735597702
    4      C      -1.3122745418     0.4544346505    -0.3311945568
    5      C      -0.5484715100     1.5421789757    -0.5756847449
    6      N       0.8458633960     1.5355208268    -0.6344894480
    7      H       2.5299680900     0.3982923088    -0.6084816328
    8      H       1.4420046639    -1.6994279687     0.0011714946
    9      H      -1.2581714714    -1.7279012019    -0.1087555440
   10      H      -2.3831607708     0.4875494607    -0.5164519945
   11      H      -1.0038547557     2.4807222442    -0.8809767704
   12      C       0.0353687330    -0.7964568353     1.4089093466
   13      H       0.0448853248    -1.5258394848     2.2101610394
 ----------------------------------------------------------------

   10    -286.8549500446      2.35E-09 Convergence criterion met
 Total energy in the final basis set = -286.85495004
 Final energy is   -286.854950044650
 **  OPTIMIZATION CONVERGED  **

                    Orbital Energies (a.u.)
 --------------------------------------------------------------

 Alpha MOs
 -- Occupied --
-14.323 -10.230 -10.224 -10.221 -10.219 -10.206 -10.195  -0.934
 -0.868  -0.765  -0.667  -0.641  -0.570  -0.532  -0.491  -0.482
 -0.451  -0.425  -0.377  -0.373  -0.359  -0.300  -0.255  -0.229
 -0.219

 Beta MOs
 -- Occupied --
-14.323 -10.229 -10.224 -10.221 -10.207 -10.204 -10.194  -0.932
 -0.858  -0.763  -0.659  -0.639  -0.556  -0.527  -0.488  -0.473
 -0.447  -0.422  -0.375  -0.371  -0.351  -0.290  -0.250  -0.225

          Ground-State Mulliken Net Atomic Charges

     Atom                 Charge (a.u.)    Spin (a.u.)
  --------------------------------------------------------
      1 C                     0.088731       0.019324
      2 C                    -0.194330      -0.017018
      3 C                    -0.175845      -0.016675
      4 C                    -0.083998       0.040987
      5 C                    -0.009261      -0.014615
      6 N                    -0.391616       0.002436
      7 H                     0.142807       0.005877
      8 H                     0.155340       0.022612
      9 H                     0.155143       0.017073
     10 H                     0.139611       0.003636
     11 H                     0.136802       0.000770
     12 C                    -0.121165       0.958806
     13 H                     0.157782      -0.023213
  --------------------------------------------------------
  Sum of atomic charges =    -0.000000

                    Cartesian Multipole Moments
 -----------------------------------------------------------------
    Charge (ESU x 10^10)
                -0.0000
    Dipole Moment (Debye)
         X      -0.7416      Y      -2.7009      Z       0.4230
       Tot       2.8326
    Quadrupole Moments (Debye-Ang)
        XX     -37.6442     XY      -3.2090     YY     -40.9947
        XZ       1.1241     YZ      -0.3994     ZZ     -42.2614

 Total job time:  52.45s(wall), 49.90s(cpu)
        *  Thank you very much for using Q-Chem.  Have a nice day.  *
