 Q-Chem 5.0, Q-Chem, Inc., Pleasanton, CA (2017)
 Q-Chem 5.0.2 for Intel X86 EM64T Linux

User input:
--------------------------------------------------------------
$molecule
0 2
C        1.4825463761    0.2724760228   -0.7647880892
C        1.0840107170   -1.0147339519   -0.4539408633
C       -0.1324978688   -1.4384895748    0.1903973881
C       -1.2191139912    0.7946994251    0.5407614240
C       -0.2916276727    1.6649833741    0.0015535527
N        0.9155635246    1.4872344921   -0.5863845641
H        2.4552614483    0.3435007485   -1.2565741188
H        1.7798156307   -1.8023699243   -0.7328645564
H       -0.2411190373   -2.5110282525    0.3391467908
H       -2.1146245045    1.2569939177    0.9491657874
H       -0.5707413434    2.7197697806    0.0490519492
C       -1.1477814294   -0.6418431165    0.6283896289
H       -1.9996918495   -1.1311929409    1.0960856707
$end

$rem
method                b3lyp
basis                 6-31g(d)
unrestricted          true
symmetry              off
sym_ignore            true
incdft                false
incfock               0
scf_convergence       8
thresh                14
jobtype               opt
scf_guess             read
scf_algorithm         diis
max_scf_cycles        100
geom_opt_tol_gradient 600
geom_opt_tol_displacement 2400
geom_opt_tol_energy   200
geom_opt_max_cycles   100
$end

--------------------------------------------------------------

    2    -286.9243488101      7.78E-10 Convergence criterion met
 Total energy in the final basis set = -286.92434881

             Standard Nuclear Orientation (Angstroms)
    I     Atom           X                Y                Z
 ----------------------------------------------------------------
    1      C       1.4829725816     0.2723929665    -0.7641216810
    2      C       1.0842352545    -1.0147839441    -0.4535381305
    3      C      -0.1319759948    -1.4386227935     0.1911504746
    4      C      -1.2194475125     0.7948747644     0.5404829085
    5      C      -0.2916969266     1.6652649833     0.0010186837
    6      N       0.9158301576     1.4874232484    -0.5863103216
    7      H       2.4550828524     0.3436562718    -1.2571673576
    8      H       1.7793480266    -1.8027153263    -0.7333345397
    9      H      -0.2415215458    -2.5112906490     0.3381781093
   10      H      -2.1155738840     1.2565007303     0.9484058707
   11      H      -0.5704210118     2.7202161300     0.0493931068
   12      C      -1.1472529003    -0.6417720525     0.6293630720
   13      H      -1.9995790970    -1.1311443294     1.0964798046
 ----------------------------------------------------------------

   12    -286.9243496387      6.53E-09 Convergence criterion met
 Total energy in the final basis set = -286.92434964
 Final energy is   -286.924349638707
 **  OPTIMIZATION CONVERGED  **

                    Orbital Energies (a.u.)
 --------------------------------------------------------------

 Alpha MOs
 -- Occupied --
-14.322 -10.232 -10.232 -10.212 -10.211 -10.201 -10.200  -0.922
 -0.818  -0.784  -0.693  -0.667  -0.551  -0.537  -0.518  -0.449
 -0.439  -0.414  -0.394  -0.386  -0.349  -0.322  -0.299  -0.251
 -0.162

 Beta MOs
 -- Occupied --
-14.314 -10.233 -10.233 -10.210 -10.210 -10.196 -10.196  -0.911
 -0.809  -0.777  -0.681  -0.665  -0.546  -0.535  -0.514  -0.447
 -0.438  -0.411  -0.383  -0.373  -0.348  -0.295  -0.276  -0.241

          Ground-State Mulliken Net Atomic Charges

     Atom                 Charge (a.u.)    Spin (a.u.)
  --------------------------------------------------------
      1 C                     0.036366      -0.114985
      2 C                    -0.132057       0.351015
      3 C                    -0.110751       0.088629
      4 C                    -0.131162       0.342995
      5 C                     0.035046      -0.110214
      6 N                    -0.423420       0.386796
      7 H                     0.142538       0.003519
      8 H                     0.134294      -0.018520
      9 H                     0.141994      -0.006392
     10 H                     0.134432      -0.018150
     11 H                     0.142665       0.003282
     12 C                    -0.111852       0.098909
     13 H                     0.141908      -0.006884
  --------------------------------------------------------
  Sum of atomic charges =    -0.000000

                    Cartesian Multipole Moments
 -----------------------------------------------------------------
    Charge (ESU x 10^10)
                -0.0000
    Dipole Moment (Debye)
         X      -1.1154      Y      -1.8115      Z       0.7126
       Tot       2.2435
    Quadrupole Moments (Debye-Ang)
        XX     -38.0795     XY      -3.5509     YY     -39.5989
        XZ      -2.3326     YZ       1.4505     ZZ     -42.3212

 Total job time:  22.03s(wall), 51.92s(cpu)
        *  Thank you very much for using Q-Chem.  Have a nice day.  *
