 Q-Chem 5.0, Q-Chem, Inc., Pleasanton, CA (2017)
 Q-Chem 5.0.2 for Intel X86 EM64T Linux

User input:
--------------------------------------------------------------
$molecule
0 2
C        1.6464770319    0.3143419501   -2.3028206368
C        1.2201594159   -1.0609663993   -2.2835385000
C       -0.1748365747   -1.2572624571   -2.4029572668
C       -1.3493383129    0.4101479916   -0.8826111777
C       -0.8057634813    1.0208974090   -2.1154226758
N        0.8699839093    1.3782625463   -2.7348207999
H        2.7504960562    0.4303136399   -2.1716207466
H        1.8415138698   -1.7607151919   -1.7228242193
H       -0.5311142293   -1.5427279736   -3.3881668056
H       -1.1855470508    0.8640999466    0.1158994846
H       -1.6228756559    1.4593507747   -2.6877726553
C       -1.5138924461   -0.9251554694   -1.0982430764
H       -1.8521958582   -1.7599463038   -0.3596332627
$end

$rem
method                b3lyp
basis                 6-31g(d)
unrestricted          true
symmetry              off
sym_ignore            true
incdft                false
incfock               0
scf_convergence       8
thresh                14
jobtype               opt
scf_algorithm         rca_diis
thresh_rca_switch     4
max_scf_cycles        300
geom_opt_tol_gradient 600
geom_opt_tol_displacement 2400
geom_opt_tol_energy   200
geom_opt_max_cycles   100
$end

--------------------------------------------------------------

   25    -286.6490635098      7.76E-09 Convergence criterion met
 Total energy in the final basis set = -286.64906351
   19    -286.6973519848      9.82E-09 Convergence criterion met
 Total energy in the final basis set = -286.69735198
   19    -286.7419989578      7.33E-09 Convergence criterion met
 Total energy in the final basis set = -286.74199896
   18    -286.7798769413      6.01E-09 Convergence criterion met
 Total energy in the final basis set = -286.77987694
   17    -286.8081201075      4.58E-09 Convergence criterion met
 Total energy in the final basis set = -286.80812011
   16    -286.8275226693      6.11E-09 Convergence criterion met
 Total energy in the final basis set = -286.82752267
   16    -286.8427474377      4.15E-09 Convergence criterion met
 Total energy in the final basis set = -286.84274744
   15    -286.8540420596      6.14E-09 Convergence criterion met
   14    -286.8743856141      8.44E-09 Convergence criterion met
 Total energy in the final basis set = -286.87438561
   13    -286.8748748160      9.26E-09 Convergence criterion met
 Total energy in the final basis set = -286.87487482
   14    -286.8726918000      4.67E-09 Convergence criterion met
 Total energy in the final basis set = -286.87269180
   14    -286.8753728372      5.38E-09 Convergence criterion met
 Total energy in the final basis set = -286.87537284
   13    -286.8751331451      7.39E-09 Convergence criterion met
 Total energy in the final basis set = -286.87513315
   13    -286.8754792730      6.43E-09 Convergence criterion met
 Total energy in the final basis set = -286.87547927

             Standard Nuclear Orientation (Angstroms)
    I     Atom           X                Y                Z
 ----------------------------------------------------------------
    1      C       1.6248145208     0.2961616505    -2.1743298135
    2      C       1.0922543798    -0.9983142935    -2.2847287475
    3      C      -0.3962857621    -0.8879697240    -2.3234870438
    4      C      -1.2698919839     0.4141482102    -0.8963388456
    5      C      -0.5770669583     0.6784248535    -2.2336401647
    6      N       0.7447399141     1.2918522332    -2.1408402678
    7      H       2.6877761796     0.5194801846    -2.0921584777
    8      H       1.6657090458    -1.9188011790    -2.2906476801
    9      H      -0.8795453683    -1.4331442847    -3.1448213327
   10      H      -1.6777992469     1.0936885160    -0.1540345933
   11      H      -1.1869951556     1.1704176410    -3.0012778397
   12      C      -1.1303771384    -0.9137620591    -0.9738133746
   13      H      -1.4042657527    -1.7415412856    -0.3244141573
 ----------------------------------------------------------------

   11    -286.8754804020      6.54E-09 Convergence criterion met
 Total energy in the final basis set = -286.87548040
 Final energy is   -286.875480402049
 **  OPTIMIZATION CONVERGED  **

                    Orbital Energies (a.u.)
 --------------------------------------------------------------

 Alpha MOs
 -- Occupied --
-14.328 -10.217 -10.216 -10.207 -10.202 -10.200 -10.195  -0.944
 -0.838  -0.752  -0.665  -0.618  -0.554  -0.523  -0.515  -0.481
 -0.428  -0.403  -0.386  -0.355  -0.341  -0.322  -0.270  -0.253
 -0.203

 Beta MOs
 -- Occupied --
-14.318 -10.219 -10.218 -10.203 -10.199 -10.198 -10.194  -0.932
 -0.831  -0.734  -0.665  -0.610  -0.549  -0.520  -0.512  -0.475
 -0.420  -0.396  -0.381  -0.343  -0.334  -0.301  -0.264  -0.246

          Ground-State Mulliken Net Atomic Charges

     Atom                 Charge (a.u.)    Spin (a.u.)
  --------------------------------------------------------
      1 C                     0.048320      -0.230907
      2 C                    -0.114867       0.693666
      3 C                    -0.193652      -0.053842
      4 C                    -0.076454       0.032417
      5 C                    -0.061503      -0.027876
      6 N                    -0.351781       0.517036
      7 H                     0.140658       0.007440
      8 H                     0.143389      -0.032169
      9 H                     0.148089       0.025338
     10 H                     0.137303       0.003650
     11 H                     0.151561       0.025148
     12 C                    -0.104407       0.033306
     13 H                     0.133345       0.006795
  --------------------------------------------------------
  Sum of atomic charges =     0.000000

                    Cartesian Multipole Moments
 -----------------------------------------------------------------
    Charge (ESU x 10^10)
                 0.0000
    Dipole Moment (Debye)
         X      -0.4592      Y      -2.1088      Z       0.0192
       Tot       2.1583
    Quadrupole Moments (Debye-Ang)
        XX     -37.8888     XY      -2.5876     YY     -41.8387
        XZ       0.2905     YZ       4.4370     ZZ     -39.9265

 Total job time:  837.17s(wall), 1078.71s(cpu)
        *  Thank you very much for using Q-Chem.  Have a nice day.  *
