 Q-Chem 5.0, Q-Chem, Inc., Pleasanton, CA (2017)
 Q-Chem 5.0.2 for Intel X86 EM64T Linux

User input:
--------------------------------------------------------------
$molecule
0 2
C        1.3960784201    0.7437234280   -0.5959173159
C        0.3635835181   -1.3573714866    0.3869511549
C       -0.9308699208   -0.9688280996    0.5631722859
C       -1.4999493556    0.3162287886    0.2490437581
C       -0.8679476358    1.4209866422   -0.2922682357
N        0.4045034645    1.6635437151   -0.6829185179
H        2.3488776696    1.1360265633   -0.9580442066
H        0.6251982123   -2.3708159614    0.6840300517
H       -1.6176108291   -1.7002651395    0.9848074461
H       -2.5591738579    0.4376211093    0.4622880786
H       -1.5132134634    2.2896824927   -0.4420123990
C        1.4394622984   -0.5628892499   -0.1493176981
H        2.4110614796   -1.0476428021   -0.2098144022
$end

$rem
method                b3lyp
basis                 6-31g(d)
unrestricted          true
symmetry              off
sym_ignore            true
incdft                false
incfock               0
scf_convergence       8
thresh                14
jobtype               opt
scf_guess             read
scf_algorithm         diis
max_scf_cycles        100
geom_opt_tol_gradient 600
geom_opt_tol_displacement 2400
geom_opt_tol_energy   200
geom_opt_max_cycles   100
$end

--------------------------------------------------------------

    2    -286.9243417161      8.84E-10 Convergence criterion met
 Total energy in the final basis set = -286.92434172
   12    -286.9243440615      9.23E-09 Convergence criterion met
 Total energy in the final basis set = -286.92434406

             Standard Nuclear Orientation (Angstroms)
    I     Atom           X                Y                Z
 ----------------------------------------------------------------
    1      C       1.3959663814     0.7443767160    -0.5954049169
    2      C       0.3638712247    -1.3568350865     0.3888051534
    3      C      -0.9309838951    -0.9688157074     0.5642079570
    4      C      -1.4994710726     0.3164794427     0.2488940765
    5      C      -0.8676654888     1.4212513906    -0.2916431967
    6      N       0.4051058473     1.6636865627    -0.6808484222
    7      H       2.3481238624     1.1361044870    -0.9598970490
    8      H       0.6251001014    -2.3717081422     0.6819567813
    9      H      -1.6173521688    -1.7003964114     0.9859354863
   10      H      -2.5592962074     0.4373959616     0.4598463198
   11      H      -1.5133431546     2.2892525908    -0.4429247913
   12      C       1.4396006237    -0.5623384779    -0.1484785169
   13      H       2.4103439464    -1.0484533259    -0.2104488814
 ----------------------------------------------------------------

   12    -286.9243444545      4.82E-09 Convergence criterion met
 Total energy in the final basis set = -286.92434445
 Final energy is   -286.924344454467
 **  OPTIMIZATION CONVERGED  **

                    Orbital Energies (a.u.)
 --------------------------------------------------------------

 Alpha MOs
 -- Occupied --
-14.322 -10.232 -10.232 -10.212 -10.211 -10.201 -10.200  -0.922
 -0.818  -0.784  -0.693  -0.667  -0.551  -0.537  -0.518  -0.449
 -0.439  -0.414  -0.394  -0.386  -0.349  -0.322  -0.299  -0.251
 -0.162

 Beta MOs
 -- Occupied --
-14.314 -10.233 -10.233 -10.210 -10.210 -10.196 -10.196  -0.911
 -0.809  -0.777  -0.681  -0.665  -0.546  -0.534  -0.514  -0.447
 -0.438  -0.411  -0.383  -0.373  -0.348  -0.295  -0.276  -0.241

          Ground-State Mulliken Net Atomic Charges

     Atom                 Charge (a.u.)    Spin (a.u.)
  --------------------------------------------------------
      1 C                     0.035419      -0.110607
      2 C                    -0.111771       0.098090
      3 C                    -0.110902       0.089482
      4 C                    -0.131833       0.350220
      5 C                     0.036147      -0.114551
      6 N                    -0.423534       0.386877
      7 H                     0.142597       0.003303
      8 H                     0.141952      -0.006844
      9 H                     0.141984      -0.006434
     10 H                     0.134265      -0.018482
     11 H                     0.142587       0.003497
     12 C                    -0.131354       0.343625
     13 H                     0.134442      -0.018178
  --------------------------------------------------------
  Sum of atomic charges =     0.000000

                    Cartesian Multipole Moments
 -----------------------------------------------------------------
    Charge (ESU x 10^10)
                 0.0000
    Dipole Moment (Debye)
         X      -0.4941      Y      -2.0263      Z       0.8291
       Tot       2.2445
    Quadrupole Moments (Debye-Ang)
        XX     -35.1157     XY      -2.2525     YY     -41.8101
        XZ      -1.1825     YZ      -0.0071     ZZ     -43.0752

 Total job time:  31.44s(wall), 90.40s(cpu)
        *  Thank you very much for using Q-Chem.  Have a nice day.  *
