 Q-Chem 5.0, Q-Chem, Inc., Pleasanton, CA (2017)
 Q-Chem 5.0.2 for Intel X86 EM64T Linux

User input:
--------------------------------------------------------------
$molecule
0 2
C        1.6165358098    0.1621626623   -0.8019671012
C        0.1900972918   -1.5800551584    1.2913079302
C       -1.0175681914   -1.2118971903    0.8859353060
C       -1.4319523032    0.0344194211    0.2448077611
C       -0.6407607968    1.0435420595   -0.1756527944
N        0.7585240920    1.1218764387   -0.0028180518
H        1.9158151710   -0.8686096875   -0.7296598834
H        0.5925648229   -2.4447102664    1.8056986174
H       -1.8367081740   -1.9222110276    1.0651710455
H       -2.5034120517    0.1640875571    0.1147905441
H       -1.0955305966    1.9419087084   -0.5942551389
C        1.5853064808    1.3640648835   -1.2391224048
H        1.8670884455    2.1954215995   -1.8642358300
$end

$rem
method                b3lyp
basis                 6-31g(d)
unrestricted          true
symmetry              off
sym_ignore            true
incdft                false
incfock               0
scf_convergence       8
thresh                14
jobtype               opt
scf_guess             read
scf_algorithm         diis
max_scf_cycles        100
geom_opt_tol_gradient 600
geom_opt_tol_displacement 2400
geom_opt_tol_energy   200
geom_opt_max_cycles   100
$end

--------------------------------------------------------------

    2    -286.7239673413      2.02E-09 Convergence criterion met
 Total energy in the final basis set = -286.72396734

             Standard Nuclear Orientation (Angstroms)
    I     Atom           X                Y                Z
 ----------------------------------------------------------------
    1      C       1.6205162057     0.1643047893    -0.8046576317
    2      C       0.1871726076    -1.5837617078     1.2925529082
    3      C      -1.0194928280    -1.2132304613     0.8869286386
    4      C      -1.4316946560     0.0333647035     0.2449108353
    5      C      -0.6392926333     1.0414670004    -0.1763470662
    6      N       0.7600456502     1.1204991870    -0.0034759222
    7      H       1.9234386893    -0.8655519639    -0.7346253906
    8      H       0.5879311992    -2.4476712672     1.8092356106
    9      H      -1.8409214819    -1.9199193409     1.0703937015
   10      H      -2.5030057954     0.1643611356     0.1146660021
   11      H      -1.0943544977     1.9396308697    -0.5951326441
   12      C       1.5853397115     1.3667547003    -1.2401146139
   13      H       1.8643178288     2.1997523552    -1.8643344279
 ----------------------------------------------------------------

   12    -286.7239686901      6.61E-09 Convergence criterion met
 Total energy in the final basis set = -286.72396869
 Final energy is   -286.723968690117
 **  OPTIMIZATION CONVERGED  **

                    Orbital Energies (a.u.)
 --------------------------------------------------------------

 Alpha MOs
 -- Occupied --
-14.350 -10.239 -10.238 -10.204 -10.196 -10.191 -10.178  -0.969
 -0.799  -0.744  -0.670  -0.596  -0.586  -0.535  -0.493  -0.479
 -0.432  -0.409  -0.381  -0.373  -0.318  -0.302  -0.238  -0.222
 -0.192

 Beta MOs
 -- Occupied --
-14.350 -10.239 -10.238 -10.205 -10.192 -10.181 -10.177  -0.969
 -0.795  -0.736  -0.661  -0.596  -0.577  -0.530  -0.486  -0.472
 -0.429  -0.398  -0.381  -0.371  -0.315  -0.300  -0.233  -0.187

          Ground-State Mulliken Net Atomic Charges

     Atom                 Charge (a.u.)    Spin (a.u.)
  --------------------------------------------------------
      1 C                     0.009777       0.002915
      2 C                    -0.225552       1.057196
      3 C                    -0.133459      -0.163913
      4 C                    -0.116741       0.069469
      5 C                     0.008632      -0.059258
      6 N                    -0.388393      -0.001650
      7 H                     0.179945       0.002131
      8 H                     0.153366       0.005585
      9 H                     0.139309       0.083405
     10 H                     0.122722      -0.002510
     11 H                     0.128572       0.004649
     12 C                    -0.051945       0.000207
     13 H                     0.173767       0.001774
  --------------------------------------------------------
  Sum of atomic charges =    -0.000000

                    Cartesian Multipole Moments
 -----------------------------------------------------------------
    Charge (ESU x 10^10)
                -0.0000
    Dipole Moment (Debye)
         X       0.3050      Y      -0.3880      Z      -1.9010
       Tot       1.9640
    Quadrupole Moments (Debye-Ang)
        XX     -36.8577     XY      -0.3254     YY     -35.8777
        XZ      -2.9605     YZ      -5.5960     ZZ     -41.0150

 Total job time:  18.98s(wall), 50.85s(cpu)
        *  Thank you very much for using Q-Chem.  Have a nice day.  *
