 Q-Chem 5.0, Q-Chem, Inc., Pleasanton, CA (2017)
 Q-Chem 5.0.2 for Intel X86 EM64T Linux

User input:
--------------------------------------------------------------
$molecule
0 2
C        1.3116773640    0.3021187270    0.2418766374
C        0.6063531285   -1.0013814904   -0.1826491112
C       -0.6883734870   -0.4653182002   -0.8441101649
C       -1.0783348807    0.1911144244    0.4506308061
C       -0.5190601939    1.0594221419   -0.6922625839
N        0.8285955267    1.4230484224   -0.4701668594
H        2.3487411746    0.2882882274    0.5586868321
H        1.1246429836   -1.9340476491   -0.3756521238
H       -1.2953207028   -0.9361550870   -1.6091301402
H       -2.0522388892    0.3363185857    0.9045795284
H       -1.1647864011    1.7417840696   -1.2338818909
C        0.2166845206   -0.3454429348    1.1122562639
H        0.3614198570   -0.6597492366    2.1398228063
$end

$rem
method                b3lyp
basis                 6-31g(d)
unrestricted          true
symmetry              off
sym_ignore            true
incdft                false
incfock               0
scf_convergence       8
thresh                14
jobtype               opt
scf_guess             read
scf_algorithm         diis
max_scf_cycles        100
geom_opt_tol_gradient 600
geom_opt_tol_displacement 2400
geom_opt_tol_energy   200
geom_opt_max_cycles   100
$end

--------------------------------------------------------------

    2    -286.8249527070      5.31E-10 Convergence criterion met
 Total energy in the final basis set = -286.82495271
   10    -286.8249551859      4.34E-09 Convergence criterion met
 Total energy in the final basis set = -286.82495519

             Standard Nuclear Orientation (Angstroms)
    I     Atom           X                Y                Z
 ----------------------------------------------------------------
    1      C       1.3120947264     0.3025930500     0.2418364592
    2      C       0.6069415265    -1.0004926679    -0.1827623872
    3      C      -0.6878612873    -0.4652565287    -0.8443213720
    4      C      -1.0782287410     0.1910101040     0.4506591688
    5      C      -0.5192183642     1.0593956206    -0.6925819849
    6      N       0.8292198056     1.4232068377    -0.4718524592
    7      H       2.3485024566     0.2896306649     0.5609411934
    8      H       1.1213020157    -1.9355875390    -0.3741489060
    9      H      -1.2950243539    -0.9365190902    -1.6091793360
   10      H      -2.0525170734     0.3359317672     0.9038270488
   11      H      -1.1656368761     1.7421862843    -1.2329244868
   12      C       0.2168273276    -0.3442221556     1.1121366309
   13      H       0.3635988378    -0.6618763470     2.1383704309
 ----------------------------------------------------------------

   10    -286.8249558491      5.17E-09 Convergence criterion met
 Total energy in the final basis set = -286.82495585
 Final energy is   -286.824955849109
 **  OPTIMIZATION CONVERGED  **

                    Orbital Energies (a.u.)
 --------------------------------------------------------------

 Alpha MOs
 -- Occupied --
-14.335 -10.215 -10.215 -10.207 -10.207 -10.207 -10.206  -0.986
 -0.837  -0.793  -0.649  -0.588  -0.574  -0.542  -0.533  -0.455
 -0.427  -0.415  -0.395  -0.384  -0.337  -0.275  -0.274  -0.248
 -0.212

 Beta MOs
 -- Occupied --
-14.319 -10.217 -10.217 -10.205 -10.205 -10.205 -10.205  -0.976
 -0.811  -0.789  -0.644  -0.585  -0.568  -0.537  -0.529  -0.453
 -0.423  -0.392  -0.389  -0.378  -0.322  -0.269  -0.257  -0.244

          Ground-State Mulliken Net Atomic Charges

     Atom                 Charge (a.u.)    Spin (a.u.)
  --------------------------------------------------------
      1 C                    -0.044692      -0.080403
      2 C                    -0.124719       0.089469
      3 C                    -0.124910       0.089569
      4 C                    -0.124574       0.088824
      5 C                    -0.044970      -0.080275
      6 N                    -0.285854       0.811316
      7 H                     0.149316       0.001045
      8 H                     0.143999      -0.002494
      9 H                     0.144006      -0.002516
     10 H                     0.143985      -0.002470
     11 H                     0.149353       0.001045
     12 C                    -0.124891       0.089377
     13 H                     0.143952      -0.002487
  --------------------------------------------------------
  Sum of atomic charges =    -0.000000

                    Cartesian Multipole Moments
 -----------------------------------------------------------------
    Charge (ESU x 10^10)
                 0.0000
    Dipole Moment (Debye)
         X      -1.1251      Y      -1.9297      Z       0.6411
       Tot       2.3239
    Quadrupole Moments (Debye-Ang)
        XX     -37.9754     XY      -3.8505     YY     -43.4346
        XZ       2.4151     YZ       0.8314     ZZ     -39.2070

 Total job time:  35.38s(wall), 83.75s(cpu)
        *  Thank you very much for using Q-Chem.  Have a nice day.  *
