 Q-Chem 5.0, Q-Chem, Inc., Pleasanton, CA (2017)
 Q-Chem 5.0.2 for Intel X86 EM64T Linux

User input:
--------------------------------------------------------------
$molecule
0 2
C        1.1213686618    0.2184417183    0.4767945193
C        0.8703404599   -0.9788791997   -0.4538239192
C       -0.4538298727   -1.0167708793   -0.6890556272
C       -1.0764290991    0.1611470087    0.0895609418
C       -0.4407543179    1.4362233479   -0.5005631398
N        0.8196305878    1.4895138924   -0.2981166313
H        2.0909332849    0.2665200093    0.9682036017
H        1.6390412408   -1.6319649401   -0.8502391910
H       -1.0071843387   -1.7102617134   -1.3117882474
H       -2.1578147296    0.1536545909    0.2208443485
H       -0.9779026026    2.2064694592   -1.0498015255
C       -0.1490415098    0.0741005365    1.3064974920
H       -0.2783577654   -0.6681938307    2.0914873784
$end

$rem
method                b3lyp
basis                 6-31+g(d,p)
unrestricted          true
symmetry              off
sym_ignore            true
incdft                false
incfock               0
scf_convergence       8
thresh                14
jobtype               sp
scf_guess             core
scf_guess_mix         5
scf_algorithm         diis
max_scf_cycles        100
$end

--------------------------------------------------------------

             Standard Nuclear Orientation (Angstroms)
    I     Atom           X                Y                Z
 ----------------------------------------------------------------
    1      C       1.1213686618     0.2184417183     0.4767945193
    2      C       0.8703404599    -0.9788791997    -0.4538239192
    3      C      -0.4538298727    -1.0167708793    -0.6890556272
    4      C      -1.0764290991     0.1611470087     0.0895609418
    5      C      -0.4407543179     1.4362233479    -0.5005631398
    6      N       0.8196305878     1.4895138924    -0.2981166313
    7      H       2.0909332849     0.2665200093     0.9682036017
    8      H       1.6390412408    -1.6319649401    -0.8502391910
    9      H      -1.0071843387    -1.7102617134    -1.3117882474
   10      H      -2.1578147296     0.1536545909     0.2208443485
   11      H      -0.9779026026     2.2064694592    -1.0498015255
   12      C      -0.1490415098     0.0741005365     1.3064974920
   13      H      -0.2783577654    -0.6681938307     2.0914873784
 ----------------------------------------------------------------

   21    -286.8735136323      6.07E-09 Convergence criterion met
 Total energy in the final basis set = -286.87351363

                    Orbital Energies (a.u.)
 --------------------------------------------------------------

 Alpha MOs
 -- Occupied --
-14.337 -10.235 -10.231 -10.221 -10.216 -10.213 -10.209  -0.965
 -0.833  -0.737  -0.715  -0.589  -0.583  -0.539  -0.520  -0.481
 -0.429  -0.420  -0.391  -0.383  -0.358  -0.305  -0.283  -0.271
 -0.206

 Beta MOs
 -- Occupied --
-14.336 -10.235 -10.231 -10.221 -10.212 -10.208 -10.202  -0.961
 -0.827  -0.735  -0.700  -0.587  -0.571  -0.536  -0.517  -0.472
 -0.425  -0.416  -0.389  -0.380  -0.352  -0.298  -0.273  -0.268

          Ground-State Mulliken Net Atomic Charges

     Atom                 Charge (a.u.)    Spin (a.u.)
  --------------------------------------------------------
      1 C                     0.026082      -0.090238
      2 C                    -0.146845       0.048294
      3 C                    -0.127820       0.092747
      4 C                     0.008199      -0.060970
      5 C                    -0.091511      -0.030878
      6 N                    -0.203607       0.024739
      7 H                     0.129416       0.003585
      8 H                     0.138930       0.000603
      9 H                     0.138584       0.000234
     10 H                     0.124665       0.003497
     11 H                     0.137341      -0.000131
     12 C                    -0.272343       1.034389
     13 H                     0.138908      -0.025872
  --------------------------------------------------------
  Sum of atomic charges =     0.000000

                    Cartesian Multipole Moments
 -----------------------------------------------------------------
    Charge (ESU x 10^10)
                 0.0000
    Dipole Moment (Debye)
         X      -1.5752      Y      -2.0622      Z      -0.0917
       Tot       2.5966
    Quadrupole Moments (Debye-Ang)
        XX     -38.9595     XY      -4.3519     YY     -44.4938
        XZ       2.3767     YZ       0.1024     ZZ     -42.0375

 Total job time:  36.09s(wall), 109.73s(cpu)
        *  Thank you very much for using Q-Chem.  Have a nice day.  *
