 Q-Chem 5.0, Q-Chem, Inc., Pleasanton, CA (2017)
 Q-Chem 5.0.2 for Intel X86 EM64T Linux

User input:
--------------------------------------------------------------
$molecule
0 2
C        1.1304038735    0.2058728035    0.4472418737
C        0.9635959528   -0.9094625034   -0.5792380224
C       -0.4327732329   -1.0285283241   -0.5350123166
C       -1.1026342522    0.2372174244    0.0146348289
C       -0.4222232878    1.4885780494   -0.4856696085
N        0.8336718974    1.5108779240   -0.2302191769
H        2.0531227355    0.2421817237    1.0232438464
H        1.7006385913   -1.5223848018   -1.0774770623
H       -1.0382739155   -1.8645032019   -0.8750759224
H       -2.1835061792    0.1984042600    0.1249700767
H       -0.9118506795    2.2753419835   -1.0556070699
C       -0.2020286659   -0.1924142041    1.1286590747
H       -0.4191738524   -0.6680026297    2.0739874181
$end

$rem
method                b3lyp
basis                 6-31+g(d,p)
unrestricted          true
symmetry              off
sym_ignore            true
incdft                false
incfock               0
scf_convergence       8
thresh                14
jobtype               sp
scf_guess             core
scf_guess_mix         5
scf_algorithm         diis
max_scf_cycles        100
$end

--------------------------------------------------------------

             Standard Nuclear Orientation (Angstroms)
    I     Atom           X                Y                Z
 ----------------------------------------------------------------
    1      C       1.1304038735     0.2058728035     0.4472418737
    2      C       0.9635959528    -0.9094625034    -0.5792380224
    3      C      -0.4327732329    -1.0285283241    -0.5350123166
    4      C      -1.1026342522     0.2372174244     0.0146348289
    5      C      -0.4222232878     1.4885780494    -0.4856696085
    6      N       0.8336718974     1.5108779240    -0.2302191769
    7      H       2.0531227355     0.2421817237     1.0232438464
    8      H       1.7006385913    -1.5223848018    -1.0774770623
    9      H      -1.0382739155    -1.8645032019    -0.8750759224
   10      H      -2.1835061792     0.1984042600     0.1249700767
   11      H      -0.9118506795     2.2753419835    -1.0556070699
   12      C      -0.2020286659    -0.1924142041     1.1286590747
   13      H      -0.4191738524    -0.6680026297     2.0739874181
 ----------------------------------------------------------------

   24    -286.8438486144      5.79E-09 Convergence criterion met
 Total energy in the final basis set = -286.84384861

                    Orbital Energies (a.u.)
 --------------------------------------------------------------

 Alpha MOs
 -- Occupied --
-14.334 -10.234 -10.231 -10.228 -10.225 -10.222 -10.199  -0.969
 -0.850  -0.750  -0.690  -0.601  -0.587  -0.546  -0.524  -0.474
 -0.436  -0.418  -0.409  -0.387  -0.351  -0.307  -0.286  -0.266
 -0.152

 Beta MOs
 -- Occupied --
-14.334 -10.236 -10.232 -10.228 -10.225 -10.214 -10.189  -0.965
 -0.844  -0.743  -0.680  -0.597  -0.577  -0.544  -0.516  -0.469
 -0.432  -0.413  -0.407  -0.385  -0.346  -0.291  -0.277  -0.262

          Ground-State Mulliken Net Atomic Charges

     Atom                 Charge (a.u.)    Spin (a.u.)
  --------------------------------------------------------
      1 C                     0.016206      -0.124036
      2 C                    -0.133389       0.738544
      3 C                    -0.139386      -0.230689
      4 C                    -0.018275      -0.032314
      5 C                    -0.063828       0.042228
      6 N                    -0.206790      -0.002969
      7 H                     0.130392       0.008293
      8 H                     0.138857      -0.030220
      9 H                     0.140557       0.012652
     10 H                     0.131586       0.003611
     11 H                     0.134910       0.001346
     12 C                    -0.278139       0.641642
     13 H                     0.147299      -0.028088
  --------------------------------------------------------
  Sum of atomic charges =     0.000000

                    Cartesian Multipole Moments
 -----------------------------------------------------------------
    Charge (ESU x 10^10)
                 0.0000
    Dipole Moment (Debye)
         X      -2.1050      Y      -1.9877      Z       0.5257
       Tot       2.9425
    Quadrupole Moments (Debye-Ang)
        XX     -39.4594     XY      -3.6674     YY     -44.4589
        XZ       2.0206     YZ       0.2277     ZZ     -41.4539

 Total job time:  39.09s(wall), 126.86s(cpu)
        *  Thank you very much for using Q-Chem.  Have a nice day.  *
