 Q-Chem 5.0, Q-Chem, Inc., Pleasanton, CA (2017)
 Q-Chem 5.0.2 for Intel X86 EM64T Linux

User input:
--------------------------------------------------------------
$molecule
0 2
C        1.1360765727    0.1783113013    0.4647911030
C        1.0238536986   -0.9320160400   -0.5734560163
C       -0.3955663336   -1.1177861726   -0.2997753217
C       -1.1183711163    0.2962568259   -0.0119173658
C       -0.3734787044    1.4836449150   -0.5024538088
N        0.8802454812    1.4721384576   -0.2193105744
H        2.0145059999    0.2193514602    1.1096429874
H        1.6639657206   -1.2025490363   -1.4078021613
H       -1.0395450124   -1.9535559012   -0.5515801813
H       -2.2006631115    0.2555280379    0.0488449343
H       -0.8183243827    2.2856719625   -1.0883793054
C       -0.2506065614   -0.3421120551    1.0125051585
H       -0.5220922505   -0.6428837553    2.0188905518
$end

$rem
method                b3lyp
basis                 6-31+g(d,p)
unrestricted          true
symmetry              off
sym_ignore            true
incdft                false
incfock               0
scf_convergence       6
thresh                14
jobtype               sp
scf_guess             read
scf_algorithm         diis
max_scf_cycles        100
stability_analysis    true
max_cis_cycles        100
cis_n_roots           4
$end

--------------------------------------------------------------

             Standard Nuclear Orientation (Angstroms)
    I     Atom           X                Y                Z
 ----------------------------------------------------------------
    1      C       1.1360765727     0.1783113013     0.4647911030
    2      C       1.0238536986    -0.9320160400    -0.5734560163
    3      C      -0.3955663336    -1.1177861726    -0.2997753217
    4      C      -1.1183711163     0.2962568259    -0.0119173658
    5      C      -0.3734787044     1.4836449150    -0.5024538088
    6      N       0.8802454812     1.4721384576    -0.2193105744
    7      H       2.0145059999     0.2193514602     1.1096429874
    8      H       1.6639657206    -1.2025490363    -1.4078021613
    9      H      -1.0395450124    -1.9535559012    -0.5515801813
   10      H      -2.2006631115     0.2555280379     0.0488449343
   11      H      -0.8183243827     2.2856719625    -1.0883793054
   12      C      -0.2506065614    -0.3421120551     1.0125051585
   13      H      -0.5220922505    -0.6428837553     2.0188905518
 ----------------------------------------------------------------

    2    -286.8602306636      1.62E-09 Convergence criterion met
 Total energy in the final basis set = -286.86023066

         TDDFT/TDA Excitation Energies
 ---------------------------------------------------

 Excited state   1: excitation energy (eV) =    3.5796
 Total energy for state  1:                  -286.72868398 au
    <S**2>     :  0.8744
    Trans. Mom.: -0.1254 X   0.4364 Y   0.0190 Z
    Strength   :     0.0181134925
    S(  1) --> V(  1) amplitude =  0.9620 alpha
    D( 24) --> S(  1) amplitude =  0.1537 beta

 Excited state   2: excitation energy (eV) =    3.8479
 Total energy for state  2:                  -286.71882250 au
    <S**2>     :  1.2322
    Trans. Mom.: -0.0088 X   0.0690 Y   0.0945 Z
    Strength   :     0.0012979665
    D( 23) --> V(  1) amplitude =  0.2637 alpha
    D( 23) --> S(  1) amplitude =  0.8563 beta
    D( 23) --> V(  1) amplitude =  0.1701 beta
    D( 24) --> S(  1) amplitude =  0.3535 beta

 Excited state   3: excitation energy (eV) =    3.9619
 Total energy for state  3:                  -286.71463186 au
    <S**2>     :  1.1422
    Trans. Mom.:  0.0325 X  -0.2388 Y   0.1087 Z
    Strength   :     0.0067855867
    D( 23) --> V(  1) amplitude = -0.1685 alpha
    S(  1) --> V(  1) amplitude = -0.1926 alpha
    D( 23) --> S(  1) amplitude = -0.2869 beta
    D( 24) --> S(  1) amplitude =  0.8782 beta
    D( 24) --> V(  1) amplitude =  0.1869 beta

 Excited state   4: excitation energy (eV) =    4.4380
 Total energy for state  4:                  -286.69713885 au
    <S**2>     :  0.8097
    Trans. Mom.:  0.1040 X  -0.1626 Y   0.0719 Z
    Strength   :     0.0046155375
    S(  1) --> V(  2) amplitude =  0.9739 alpha

 ---------------------------------------------------

                    Orbital Energies (a.u.)
 --------------------------------------------------------------

 Alpha MOs
 -- Occupied --
-14.331 -10.230 -10.230 -10.224 -10.222 -10.219 -10.211  -0.974
 -0.866  -0.757  -0.667  -0.618  -0.581  -0.545  -0.528  -0.473
 -0.441  -0.421  -0.398  -0.371  -0.346  -0.315  -0.274  -0.268
 -0.193

 Beta MOs
 -- Occupied --
-14.331 -10.231 -10.229 -10.225 -10.220 -10.217 -10.198  -0.970
 -0.862  -0.747  -0.657  -0.612  -0.577  -0.542  -0.517  -0.470
 -0.436  -0.416  -0.394  -0.368  -0.334  -0.306  -0.269  -0.266

          Ground-State Mulliken Net Atomic Charges

     Atom                 Charge (a.u.)    Spin (a.u.)
  --------------------------------------------------------
      1 C                    -0.074061      -0.124519
      2 C                    -0.075569       1.020538
      3 C                    -0.133605      -0.150320
      4 C                    -0.098807       0.110742
      5 C                    -0.092993       0.042458
      6 N                    -0.209677       0.029839
      7 H                     0.135171       0.018752
      8 H                     0.130749      -0.024429
      9 H                     0.140428       0.004619
     10 H                     0.137861       0.001293
     11 H                     0.132476       0.004609
     12 C                    -0.125104       0.066788
     13 H                     0.133130      -0.000369
  --------------------------------------------------------
  Sum of atomic charges =    -0.000000

                    Cartesian Multipole Moments
 -----------------------------------------------------------------
    Charge (ESU x 10^10)
                -0.0000
    Dipole Moment (Debye)
         X      -2.1156      Y      -1.6622      Z       0.5266
       Tot       2.7415
    Quadrupole Moments (Debye-Ang)
        XX     -40.2382     XY      -3.1921     YY     -44.6917
        XZ       1.1163     YZ       0.1702     ZZ     -40.1377

 Total job time:  213.41s(wall), 192.32s(cpu)
        *  Thank you very much for using Q-Chem.  Have a nice day.  *
