 Q-Chem 5.0, Q-Chem, Inc., Pleasanton, CA (2017)
 Q-Chem 5.0.2 for Intel X86 EM64T Linux

User input:
--------------------------------------------------------------
$molecule
0 2
C        1.1187211344    0.2262124186    0.4758076972
C        0.8717076848   -0.9809679116   -0.4424830205
C       -0.4495229106   -1.0233109056   -0.6793106180
C       -1.0762950112    0.1562205380    0.0913089130
C       -0.4451104867    1.4277942924   -0.5114998962
N        0.8137958374    1.4907113157   -0.3130860058
H        2.0896756730    0.2831277202    0.9655733606
H        1.6433743730   -1.6348341026   -0.8336170598
H       -0.9986478795   -1.7128342237   -1.3112176556
H       -2.1582381303    0.1437166275    0.2234362696
H       -0.9881667713    2.1886042097   -1.0696600052
C       -0.1490827344    0.0892654167    1.3092065499
H       -0.2722107785   -0.6537053951    2.0955414706
****
C        1.5915560534    0.4038568986   -0.4015746982
C        1.2326624385   -0.9184939181   -0.2197401111
C       -0.0622307331   -1.4509571608    0.1203810849
C       -1.3664923973    0.6865277646    0.2691547711
C       -0.4098913406    1.6398897740   -0.0248094947
N        0.9074062739    1.5695081078   -0.3286538055
H        2.6415186609    0.5624870927   -0.6574742130
H        2.0309931089   -1.6449091882   -0.3515158048
H       -0.1199588073   -2.5336397950    0.2129643870
H       -2.3635984213    1.0685109871    0.4745849906
H       -0.7720165505    2.6703330996   -0.0154478226
C       -1.2072701854   -0.7438136993    0.3359894837
H       -2.1026781001   -1.3092999629    0.5861412326
$end

$rem
method                b3lyp
basis                 6-31g(d)
unrestricted          true
symmetry              off
sym_ignore            true
incdft                false
incfock               0
scf_convergence       8
thresh                14
jobtype               fsm
scf_guess             core
scf_guess_mix         5
scf_algorithm         diis
max_scf_cycles        100
fsm_nnode             21
fsm_ngrad             6
fsm_mode              2
fsm_opt_mode          2
$end

--------------------------------------------------------------

   21    -286.8516724222      2.63E-09 Convergence criterion met
 Total energy in the final basis set = -286.85167242
   23    -286.9243507547      3.10E-09 Convergence criterion met
 Total energy in the final basis set = -286.92435075
   20    -286.8449553423      8.72E-09 Convergence criterion met
 Total energy in the final basis set = -286.84495534
   21    -286.8471693887      4.60E-09 Convergence criterion met
 Total energy in the final basis set = -286.84716939
   23    -286.9202361647      5.54E-09 Convergence criterion met
 Total energy in the final basis set = -286.92023616
   22    -286.9153286605      7.47E-09 Convergence criterion met
 Total energy in the final basis set = -286.91532866
   23    -286.9217921187      6.48E-09 Convergence criterion met
 Total energy in the final basis set = -286.92179212
   21    -286.8334830373      9.23E-09 Convergence criterion met
 Total energy in the final basis set = -286.72681038
   32    -286.7264131102      1.69E-09 Convergence criterion met
 Total energy in the final basis set = -286.72641311
   29    -286.7271542586      9.88E-09 Convergence criterion met
 Total energy in the final basis set = -286.72715426
   32    -286.7261662516      1.96E-09 Convergence criterion met
 Total energy in the final basis set = -286.72616625
   29    -286.7272418855      9.33E-09 Convergence criterion met
 Total energy in the final basis set = -286.72724189
   30    -286.7261228585      9.84E-09 Convergence criterion met
 Total energy in the final basis set = -286.72612286
   29    -286.7272600603      8.71E-09 Convergence criterion met
 Total energy in the final basis set = -286.72726006
   31    -286.7261513709      9.35E-09 Convergence criterion met
 Total energy in the final basis set = -286.72615137

                    Orbital Energies (a.u.)
 --------------------------------------------------------------

 Alpha MOs
 -- Occupied --
-14.331 -10.246 -10.236 -10.233 -10.228 -10.204 -10.194  -0.947
 -0.818  -0.760  -0.671  -0.614  -0.565  -0.527  -0.493  -0.451
 -0.435  -0.408  -0.391  -0.373  -0.332  -0.293  -0.264  -0.258
 -0.136

 Beta MOs
 -- Occupied --
-14.330 -10.247 -10.238 -10.233 -10.228 -10.190 -10.188  -0.946
 -0.810  -0.754  -0.666  -0.607  -0.554  -0.524  -0.487  -0.447
 -0.432  -0.404  -0.387  -0.371  -0.316  -0.283  -0.263  -0.246

          Ground-State Mulliken Net Atomic Charges

     Atom                 Charge (a.u.)    Spin (a.u.)
  --------------------------------------------------------
      1 C                    -0.035048      -0.136376
      2 C                    -0.080616       0.415187
      3 C                    -0.130450      -0.190732
      4 C                    -0.235215      -0.019043
      5 C                     0.110324      -0.003821
      6 N                    -0.328746       0.013583
      7 H                     0.145316       0.009538
      8 H                     0.151165      -0.023102
      9 H                     0.163059       0.013419
     10 H                     0.149085       0.022399
     11 H                     0.153038       0.000313
     12 C                    -0.210824       0.937375
     13 H                     0.148912      -0.038741
  --------------------------------------------------------
  Sum of atomic charges =    -0.000000

                    Cartesian Multipole Moments
 -----------------------------------------------------------------
    Charge (ESU x 10^10)
                -0.0000
    Dipole Moment (Debye)
         X      -1.3446      Y      -1.7025      Z      -0.1823
       Tot       2.1771
    Quadrupole Moments (Debye-Ang)
        XX     -37.3586     XY      -3.6145     YY     -39.8122
        XZ       0.2218     YZ       0.5226     ZZ     -44.2367

             Standard Nuclear Orientation (Angstroms)
    I     Atom           X                Y                Z
 ----------------------------------------------------------------
    1      C       1.2406094632     0.2863324682     0.2686686569
    2      C       0.9523863634    -0.9417522938    -0.4854569997
    3      C      -0.3891498307    -1.1270410235    -0.5951221964
    4      C      -1.1342559329     0.3010713982     0.0126572130
    5      C      -0.4548074901     1.5275192147    -0.4566152980
    6      N       0.8216888770     1.5199837318    -0.2891935742
    7      H       2.2723659968     0.3848288696     0.6093251203
    8      H       1.7373062250    -1.6839921804    -0.6928451154
    9      H      -0.7842085519    -2.1263648492    -0.8230456654
   10      H      -2.2250103521     0.4572262865     0.1474727752
   11      H      -0.9649133068     2.4493646642    -0.7506802304
   12      C      -0.3408904672    -0.1392700560     1.2001434647
   13      H      -0.7621520085    -0.9347277269     1.8291297891
 ----------------------------------------------------------------

 Total job time:  2791.70s(wall), 4162.23s(cpu)
        *  Thank you very much for using Q-Chem.  Have a nice day.  *
