 Q-Chem 5.0, Q-Chem, Inc., Pleasanton, CA (2017)
 Q-Chem 5.0.2 for Intel X86 EM64T Linux

User input:
--------------------------------------------------------------
$molecule
0 2
C        1.1304038735    0.2058728035    0.4472418737
C        0.9635959528   -0.9094625034   -0.5792380224
C       -0.4327732329   -1.0285283241   -0.5350123166
C       -1.1026342522    0.2372174244    0.0146348289
C       -0.4222232878    1.4885780494   -0.4856696085
N        0.8336718974    1.5108779240   -0.2302191769
H        2.0531227355    0.2421817237    1.0232438464
H        1.7006385913   -1.5223848018   -1.0774770623
H       -1.0382739155   -1.8645032019   -0.8750759224
H       -2.1835061792    0.1984042600    0.1249700767
H       -0.9118506795    2.2753419835   -1.0556070699
C       -0.2020286659   -0.1924142041    1.1286590747
H       -0.4191738524   -0.6680026297    2.0739874181
$end

$rem
method                b3lyp
basis                 6-31+g(d,p)
unrestricted          true
symmetry              off
sym_ignore            true
incdft                false
incfock               0
scf_convergence       8
thresh                14
jobtype               rpath
scf_guess             core
scf_guess_mix         5
scf_algorithm         diis
max_scf_cycles        100
rpath_direction       1
rpath_tol_displacement 1000
rpath_max_cycles      50
geom_opt_max_cycles   300
geom_opt_hessian      read
$end

--------------------------------------------------------------

   24    -286.8438486144      5.79E-09 Convergence criterion met
 Total energy in the final basis set = -286.84384861
   24    -286.8461045884      3.53E-09 Convergence criterion met
 Total energy in the final basis set = -286.84610459
   24    -286.8460805053      3.52E-09 Convergence criterion met
 Total energy in the final basis set = -286.84608051
   24    -286.8461080268      3.55E-09 Convergence criterion met
 Total energy in the final basis set = -286.84610803
   23    -286.8517964186      5.46E-09 Convergence criterion met
 Total energy in the final basis set = -286.85179642
   22    -286.8517849175      7.92E-09 Convergence criterion met
 Total energy in the final basis set = -286.85178492
   23    -286.8518106819      2.81E-09 Convergence criterion met
 Total energy in the final basis set = -286.85181068
   22    -286.8580165288      9.59E-09 Convergence criterion met
 Total energy in the final basis set = -286.85449353
   22    -286.8602286922      9.65E-09 Convergence criterion met
 Total energy in the final basis set = -286.86022869
   23    -286.8602272063      3.20E-09 Convergence criterion met
 Total energy in the final basis set = -286.86022721
   23    -286.8602300966      3.10E-09 Convergence criterion met
 Total energy in the final basis set = -286.86023010
   22    -286.8582016473      2.93E-09 Convergence criterion met
 Total energy in the final basis set = -286.85820165
   23    -286.8602356531      3.03E-09 Convergence criterion met
 Total energy in the final basis set = -286.86023565
   22    -286.8602310643      7.36E-09 Convergence criterion met
 Total energy in the final basis set = -286.86023106
   23    -286.8602367378      2.96E-09 Convergence criterion met
 Total energy in the final basis set = -286.86023674

                    Orbital Energies (a.u.)
 --------------------------------------------------------------

 Alpha MOs
 -- Occupied --
-14.331 -10.230 -10.230 -10.224 -10.222 -10.219 -10.211  -0.974
 -0.866  -0.757  -0.667  -0.618  -0.581  -0.545  -0.528  -0.473
 -0.441  -0.421  -0.398  -0.371  -0.346  -0.315  -0.274  -0.268
 -0.193

 Beta MOs
 -- Occupied --
-14.331 -10.231 -10.230 -10.225 -10.220 -10.217 -10.198  -0.970
 -0.862  -0.747  -0.657  -0.612  -0.577  -0.542  -0.517  -0.470
 -0.436  -0.416  -0.394  -0.368  -0.334  -0.306  -0.269  -0.266

          Ground-State Mulliken Net Atomic Charges

     Atom                 Charge (a.u.)    Spin (a.u.)
  --------------------------------------------------------
      1 C                    -0.074696      -0.124366
      2 C                    -0.075369       1.020550
      3 C                    -0.133796      -0.150157
      4 C                    -0.098410       0.110830
      5 C                    -0.092939       0.042384
      6 N                    -0.209536       0.029908
      7 H                     0.135167       0.018763
      8 H                     0.130616      -0.024366
      9 H                     0.140423       0.004632
     10 H                     0.137912       0.001283
     11 H                     0.132472       0.004609
     12 C                    -0.124938       0.066289
     13 H                     0.133095      -0.000360
  --------------------------------------------------------
  Sum of atomic charges =     0.000000

                    Cartesian Multipole Moments
 -----------------------------------------------------------------
    Charge (ESU x 10^10)
                 0.0000
    Dipole Moment (Debye)
         X      -2.1170      Y      -1.6628      Z       0.5190
       Tot       2.7415
    Quadrupole Moments (Debye-Ang)
        XX     -40.2350     XY      -3.1751     YY     -44.6944
        XZ       1.1185     YZ       0.1620     ZZ     -40.1295

             Standard Nuclear Orientation (Angstroms)
    I     Atom           X                Y                Z
 ----------------------------------------------------------------
    1      C       1.1304038735     0.2058728035     0.4472418737
    2      C       0.9635959528    -0.9094625034    -0.5792380224
    3      C      -0.4327732329    -1.0285283241    -0.5350123166
    4      C      -1.1026342522     0.2372174244     0.0146348289
    5      C      -0.4222232878     1.4885780494    -0.4856696085
    6      N       0.8336718974     1.5108779240    -0.2302191769
    7      H       2.0531227355     0.2421817237     1.0232438464
    8      H       1.7006385913    -1.5223848018    -1.0774770623
    9      H      -1.0382739155    -1.8645032019    -0.8750759224
   10      H      -2.1835061792     0.1984042600     0.1249700767
   11      H      -0.9118506795     2.2753419835    -1.0556070699
   12      C      -0.2020286659    -0.1924142041     1.1286590747
   13      H      -0.4191738524    -0.6680026297     2.0739874181
 ----------------------------------------------------------------

 Total job time:  9251.84s(wall), 27112.25s(cpu)
        *  Thank you very much for using Q-Chem.  Have a nice day.  *
