 Q-Chem 5.0, Q-Chem, Inc., Pleasanton, CA (2017)
 Q-Chem 5.0.2 for Intel X86 EM64T Linux

User input:
--------------------------------------------------------------
$molecule
0 2
C        1.1184279548    0.2253674243    0.4756302396
C        0.8712261597   -0.9806072958   -0.4429640738
C       -0.4497211412   -1.0235322974   -0.6802608896
C       -1.0764552804    0.1564588221    0.0909574608
C       -0.4450241850    1.4279370346   -0.5118170543
N        0.8139983116    1.4908555697   -0.3135919152
H        2.0889981005    0.2828095116    0.9660837992
H        1.6435544508   -1.6346689070   -0.8326628757
H       -0.9977524283   -1.7136227493   -1.3124711005
H       -2.1579967911    0.1432016864    0.2262937224
H       -0.9878583205    2.1892739038   -1.0695322310
C       -0.1489888581    0.0891851952    1.3085406563
H       -0.2724079727   -0.6526578981    2.0957942617
$end

$rem
method                b3lyp
basis                 6-31g(d)
unrestricted          true
symmetry              off
sym_ignore            true
incdft                false
incfock               0
scf_convergence       8
thresh                14
jobtype               opt
scf_guess             core
scf_guess_mix         5
scf_algorithm         diis
max_scf_cycles        100
geom_opt_max_cycles   300
$end

--------------------------------------------------------------

   21    -286.8516702428      2.57E-09 Convergence criterion met
 Total energy in the final basis set = -286.85167024
   16    -286.8516721464      4.05E-09 Convergence criterion met
 Total energy in the final basis set = -286.85167215

             Standard Nuclear Orientation (Angstroms)
    I     Atom           X                Y                Z
 ----------------------------------------------------------------
    1      C       1.1187211344     0.2262124186     0.4758076972
    2      C       0.8717076848    -0.9809679116    -0.4424830205
    3      C      -0.4495229106    -1.0233109056    -0.6793106180
    4      C      -1.0762950112     0.1562205380     0.0913089130
    5      C      -0.4451104867     1.4277942924    -0.5114998962
    6      N       0.8137958374     1.4907113157    -0.3130860058
    7      H       2.0896756730     0.2831277202     0.9655733606
    8      H       1.6433743730    -1.6348341026    -0.8336170598
    9      H      -0.9986478795    -1.7128342237    -1.3112176556
   10      H      -2.1582381303     0.1437166275     0.2234362696
   11      H      -0.9881667713     2.1886042097    -1.0696600052
   12      C      -0.1490827344     0.0892654167     1.3092065499
   13      H      -0.2722107785    -0.6537053951     2.0955414706
 ----------------------------------------------------------------

   16    -286.8516724222      4.02E-09 Convergence criterion met
 Total energy in the final basis set = -286.85167242
 Final energy is   -286.851672422212
 **  OPTIMIZATION CONVERGED  **

                    Orbital Energies (a.u.)
 --------------------------------------------------------------

 Alpha MOs
 -- Occupied --
-14.322 -10.224 -10.220 -10.210 -10.204 -10.201 -10.197  -0.952
 -0.821  -0.726  -0.705  -0.579  -0.573  -0.531  -0.512  -0.472
 -0.418  -0.410  -0.381  -0.373  -0.348  -0.294  -0.271  -0.258
 -0.196

 Beta MOs
 -- Occupied --
-14.321 -10.224 -10.221 -10.210 -10.200 -10.196 -10.190  -0.949
 -0.815  -0.725  -0.690  -0.577  -0.561  -0.527  -0.509  -0.463
 -0.414  -0.406  -0.379  -0.369  -0.342  -0.287  -0.261  -0.255

          Ground-State Mulliken Net Atomic Charges

     Atom                 Charge (a.u.)    Spin (a.u.)
  --------------------------------------------------------
      1 C                    -0.094402      -0.045002
      2 C                    -0.088160       0.040352
      3 C                    -0.095623       0.079382
      4 C                    -0.246292      -0.043881
      5 C                     0.092264      -0.008789
      6 N                    -0.325162       0.021883
      7 H                     0.139796       0.003027
      8 H                     0.146101       0.000879
      9 H                     0.145548       0.000347
     10 H                     0.133920       0.002861
     11 H                     0.149686      -0.000176
     12 C                    -0.096522       0.975652
     13 H                     0.138847      -0.026535
  --------------------------------------------------------
  Sum of atomic charges =    -0.000000

                    Cartesian Multipole Moments
 -----------------------------------------------------------------
    Charge (ESU x 10^10)
                -0.0000
    Dipole Moment (Debye)
         X      -1.4211      Y      -1.9010      Z      -0.0756
       Tot       2.3747
    Quadrupole Moments (Debye-Ang)
        XX     -38.1866     XY      -3.9089     YY     -42.7481
        XZ       2.0991     YZ       0.2714     ZZ     -40.5453

 Total job time:  122.24s(wall), 170.15s(cpu)
        *  Thank you very much for using Q-Chem.  Have a nice day.  *
