 Q-Chem 5.0, Q-Chem, Inc., Pleasanton, CA (2017)
 Q-Chem 5.0.2 for Intel X86 EM64T Linux

User input:
--------------------------------------------------------------
$molecule
0 2
C        1.1282310772    0.2062317036    0.4520049939
C        0.9624505696   -0.9148579879   -0.5671201834
C       -0.4329751976   -1.0288820820   -0.5255551631
C       -1.1030832298    0.2387587796    0.0153908199
C       -0.4171782309    1.4856148554   -0.4892121855
N        0.8374042644    1.5085097637   -0.2355968477
H        2.0499252085    0.2457672072    1.0316581108
H        1.6965560349   -1.5039672271   -1.0988552471
H       -1.0403964226   -1.8648458146   -0.8651759640
H       -2.1848401477    0.2021763845    0.1235858354
H       -0.9056730070    2.2694323998   -1.0659230858
C       -0.2049091343   -0.1815734643    1.1348471268
H       -0.4165427996   -0.6891860145    2.0643897293
$end

$rem
method                b3lyp
basis                 6-31+g(d,p)
unrestricted          true
symmetry              off
sym_ignore            true
incdft                false
incfock               0
scf_convergence       8
thresh                14
jobtype               sp
scf_guess             core
scf_guess_mix         5
scf_algorithm         diis
max_scf_cycles        100
$end

--------------------------------------------------------------

             Standard Nuclear Orientation (Angstroms)
    I     Atom           X                Y                Z
 ----------------------------------------------------------------
    1      C       1.1282310772     0.2062317036     0.4520049939
    2      C       0.9624505696    -0.9148579879    -0.5671201834
    3      C      -0.4329751976    -1.0288820820    -0.5255551631
    4      C      -1.1030832298     0.2387587796     0.0153908199
    5      C      -0.4171782309     1.4856148554    -0.4892121855
    6      N       0.8374042644     1.5085097637    -0.2355968477
    7      H       2.0499252085     0.2457672072     1.0316581108
    8      H       1.6965560349    -1.5039672271    -1.0988552471
    9      H      -1.0403964226    -1.8648458146    -0.8651759640
   10      H      -2.1848401477     0.2021763845     0.1235858354
   11      H      -0.9056730070     2.2694323998    -1.0659230858
   12      C      -0.2049091343    -0.1815734643     1.1348471268
   13      H      -0.4165427996    -0.6891860145     2.0643897293
 ----------------------------------------------------------------

   24    -286.8438108508      5.53E-09 Convergence criterion met
 Total energy in the final basis set = -286.84381085

                    Orbital Energies (a.u.)
 --------------------------------------------------------------

 Alpha MOs
 -- Occupied --
-14.334 -10.233 -10.231 -10.229 -10.226 -10.222 -10.199  -0.969
 -0.850  -0.750  -0.690  -0.601  -0.587  -0.546  -0.524  -0.475
 -0.435  -0.419  -0.409  -0.386  -0.352  -0.307  -0.286  -0.266
 -0.153

 Beta MOs
 -- Occupied --
-14.334 -10.236 -10.232 -10.228 -10.225 -10.214 -10.190  -0.966
 -0.845  -0.743  -0.680  -0.597  -0.578  -0.543  -0.516  -0.469
 -0.431  -0.414  -0.407  -0.384  -0.346  -0.292  -0.276  -0.262

          Ground-State Mulliken Net Atomic Charges

     Atom                 Charge (a.u.)    Spin (a.u.)
  --------------------------------------------------------
      1 C                     0.021815      -0.124685
      2 C                    -0.140437       0.735562
      3 C                    -0.133953      -0.234360
      4 C                    -0.024002      -0.028302
      5 C                    -0.063356       0.042023
      6 N                    -0.207386      -0.002314
      7 H                     0.130574       0.008981
      8 H                     0.138394      -0.028081
      9 H                     0.140296       0.013291
     10 H                     0.131633       0.004016
     11 H                     0.134729       0.001292
     12 C                    -0.277201       0.641717
     13 H                     0.148894      -0.029139
  --------------------------------------------------------
  Sum of atomic charges =     0.000000

                    Cartesian Multipole Moments
 -----------------------------------------------------------------
    Charge (ESU x 10^10)
                -0.0000
    Dipole Moment (Debye)
         X      -2.1033      Y      -1.9838      Z       0.4819
       Tot       2.9311
    Quadrupole Moments (Debye-Ang)
        XX     -39.5052     XY      -3.5845     YY     -44.5058
        XZ       1.9746     YZ       0.1813     ZZ     -41.4146

 Total job time:  53.31s(wall), 126.62s(cpu)
        *  Thank you very much for using Q-Chem.  Have a nice day.  *
