 Q-Chem 5.0, Q-Chem, Inc., Pleasanton, CA (2017)
 Q-Chem 5.0.2 for Intel X86 EM64T Linux

User input:
--------------------------------------------------------------
$molecule
0 2
C        1.2406094632    0.2863324682    0.2686686569
C        0.9523863634   -0.9417522938   -0.4854569997
C       -0.3891498307   -1.1270410235   -0.5951221964
C       -1.1342559329    0.3010713982    0.0126572130
C       -0.4548074901    1.5275192147   -0.4566152980
N        0.8216888770    1.5199837318   -0.2891935742
H        2.2723659968    0.3848288696    0.6093251203
H        1.7373062250   -1.6839921804   -0.6928451154
H       -0.7842085519   -2.1263648492   -0.8230456654
H       -2.2250103521    0.4572262865    0.1474727752
H       -0.9649133068    2.4493646642   -0.7506802304
C       -0.3408904672   -0.1392700560    1.2001434647
H       -0.7621520085   -0.9347277269    1.8291297891
$end

$rem
method                b3lyp
basis                 6-31g(d)
unrestricted          true
symmetry              off
sym_ignore            true
incdft                false
incfock               0
scf_convergence       8
thresh                14
jobtype               ts
scf_guess             read
scf_algorithm         diis
max_scf_cycles        100
geom_opt_max_cycles   500
geom_opt_dmax         100
geom_opt_tol_gradient 10
geom_opt_hessian      read
$end

--------------------------------------------------------------

    2    -286.7639704461      6.45E-10 Convergence criterion met
 Total energy in the final basis set = -286.76397045
   16    -286.7698353563      5.36E-09 Convergence criterion met
 Total energy in the final basis set = -286.76983536
   15    -286.7758157777      7.21E-09 Convergence criterion met
 Total energy in the final basis set = -286.77581578
   14    -286.7812422303      7.26E-09 Convergence criterion met
 Total energy in the final basis set = -286.78124223
   15    -286.7862873978      4.98E-09 Convergence criterion met
 Total energy in the final basis set = -286.78628740
   14    -286.7910920725      9.87E-09 Convergence criterion met
 Total energy in the final basis set = -286.79109207
   14    -286.7956808769      8.85E-09 Convergence criterion met
 Total energy in the final basis set = -286.79568088
   14    -286.8000042347      7.95E-09 Convergence criterion met
   12    -286.8208191308      8.00E-09 Convergence criterion met
 Total energy in the final basis set = -286.82081913
   11    -286.8208212040      6.13E-09 Convergence criterion met
 Total energy in the final basis set = -286.82082120
   11    -286.8208211812      4.01E-09 Convergence criterion met
 Total energy in the final basis set = -286.82082118
   13    -286.8208114627      4.96E-09 Convergence criterion met
 Total energy in the final basis set = -286.82081146
   13    -286.8208212033      3.43E-09 Convergence criterion met
 Total energy in the final basis set = -286.82082120
   10    -286.8208212094      6.16E-09 Convergence criterion met
 Total energy in the final basis set = -286.82082121

             Standard Nuclear Orientation (Angstroms)
    I     Atom           X                Y                Z
 ----------------------------------------------------------------
    1      C       1.1282310772     0.2062317036     0.4520049939
    2      C       0.9624505696    -0.9148579879    -0.5671201834
    3      C      -0.4329751976    -1.0288820820    -0.5255551631
    4      C      -1.1030832298     0.2387587796     0.0153908199
    5      C      -0.4171782309     1.4856148554    -0.4892121855
    6      N       0.8374042644     1.5085097637    -0.2355968477
    7      H       2.0499252085     0.2457672072     1.0316581108
    8      H       1.6965560349    -1.5039672271    -1.0988552471
    9      H      -1.0403964226    -1.8648458146    -0.8651759640
   10      H      -2.1848401477     0.2021763845     0.1235858354
   11      H      -0.9056730070     2.2694323998    -1.0659230858
   12      C      -0.2049091343    -0.1815734643     1.1348471268
   13      H      -0.4165427996    -0.6891860145     2.0643897293
 ----------------------------------------------------------------

    8    -286.8208212109      7.85E-09 Convergence criterion met
 Total energy in the final basis set = -286.82082121
 Final energy is   -286.820821210941
 **  OPTIMIZATION CONVERGED  **

                    Orbital Energies (a.u.)
 --------------------------------------------------------------

 Alpha MOs
 -- Occupied --
-14.318 -10.221 -10.220 -10.217 -10.214 -10.209 -10.186  -0.956
 -0.837  -0.739  -0.679  -0.591  -0.576  -0.536  -0.515  -0.463
 -0.425  -0.408  -0.397  -0.376  -0.340  -0.295  -0.273  -0.252
 -0.140

 Beta MOs
 -- Occupied --
-14.318 -10.224 -10.220 -10.216 -10.214 -10.200 -10.176  -0.952
 -0.832  -0.731  -0.668  -0.586  -0.567  -0.534  -0.507  -0.458
 -0.421  -0.403  -0.395  -0.374  -0.335  -0.279  -0.263  -0.248

          Ground-State Mulliken Net Atomic Charges

     Atom                 Charge (a.u.)    Spin (a.u.)
  --------------------------------------------------------
      1 C                    -0.095313      -0.069587
      2 C                    -0.077535       0.682768
      3 C                    -0.131173      -0.229324
      4 C                    -0.199147       0.005048
      5 C                     0.099449       0.045164
      6 N                    -0.338516      -0.005286
      7 H                     0.139905       0.008204
      8 H                     0.141199      -0.028660
      9 H                     0.148809       0.014356
     10 H                     0.142609       0.003568
     11 H                     0.144841       0.001461
     12 C                    -0.133597       0.603546
     13 H                     0.158469      -0.031257
  --------------------------------------------------------
  Sum of atomic charges =    -0.000000

                    Cartesian Multipole Moments
 -----------------------------------------------------------------
    Charge (ESU x 10^10)
                -0.0000
    Dipole Moment (Debye)
         X      -1.8890      Y      -1.8712      Z       0.4412
       Tot       2.6953
    Quadrupole Moments (Debye-Ang)
        XX     -38.5294     XY      -3.2084     YY     -42.7166
        XZ       1.5138     YZ       0.2179     ZZ     -39.7525

 Total job time:  956.82s(wall), 1863.95s(cpu)
        *  Thank you very much for using Q-Chem.  Have a nice day.  *
