 Q-Chem 5.0, Q-Chem, Inc., Pleasanton, CA (2017)
 Q-Chem 5.0.2 for Intel X86 EM64T Linux

User input:
--------------------------------------------------------------
$molecule
0 2
C        1.1282310772    0.2062317036    0.4520049939
C        0.9624505696   -0.9148579879   -0.5671201834
C       -0.4329751976   -1.0288820820   -0.5255551631
C       -1.1030832298    0.2387587796    0.0153908199
C       -0.4171782309    1.4856148554   -0.4892121855
N        0.8374042644    1.5085097637   -0.2355968477
H        2.0499252085    0.2457672072    1.0316581108
H        1.6965560349   -1.5039672271   -1.0988552471
H       -1.0403964226   -1.8648458146   -0.8651759640
H       -2.1848401477    0.2021763845    0.1235858354
H       -0.9056730070    2.2694323998   -1.0659230858
C       -0.2049091343   -0.1815734643    1.1348471268
H       -0.4165427996   -0.6891860145    2.0643897293
$end

$rem
method                b3lyp
basis                 6-31+g(d,p)
unrestricted          true
symmetry              off
sym_ignore            true
incdft                false
incfock               0
scf_convergence       8
thresh                14
jobtype               freq
scf_guess             read
scf_algorithm         diis
max_scf_cycles        100
$end

--------------------------------------------------------------

             Standard Nuclear Orientation (Angstroms)
    I     Atom           X                Y                Z
 ----------------------------------------------------------------
    1      C       1.1282310772     0.2062317036     0.4520049939
    2      C       0.9624505696    -0.9148579879    -0.5671201834
    3      C      -0.4329751976    -1.0288820820    -0.5255551631
    4      C      -1.1030832298     0.2387587796     0.0153908199
    5      C      -0.4171782309     1.4856148554    -0.4892121855
    6      N       0.8374042644     1.5085097637    -0.2355968477
    7      H       2.0499252085     0.2457672072     1.0316581108
    8      H       1.6965560349    -1.5039672271    -1.0988552471
    9      H      -1.0403964226    -1.8648458146    -0.8651759640
   10      H      -2.1848401477     0.2021763845     0.1235858354
   11      H      -0.9056730070     2.2694323998    -1.0659230858
   12      C      -0.2049091343    -0.1815734643     1.1348471268
   13      H      -0.4165427996    -0.6891860145     2.0643897293
 ----------------------------------------------------------------

    2    -286.8438108508      1.67E-09 Convergence criterion met
 Total energy in the final basis set = -286.84381085

                    Orbital Energies (a.u.)
 --------------------------------------------------------------

 Alpha MOs
 -- Occupied --
-14.334 -10.233 -10.231 -10.229 -10.226 -10.222 -10.199  -0.969
 -0.850  -0.750  -0.690  -0.601  -0.587  -0.546  -0.524  -0.475
 -0.435  -0.419  -0.409  -0.386  -0.352  -0.307  -0.286  -0.266
 -0.153

 Beta MOs
 -- Occupied --
-14.334 -10.236 -10.232 -10.228 -10.225 -10.214 -10.190  -0.966
 -0.845  -0.743  -0.680  -0.597  -0.578  -0.543  -0.516  -0.469
 -0.431  -0.414  -0.407  -0.384  -0.346  -0.292  -0.276  -0.262

          Ground-State Mulliken Net Atomic Charges

     Atom                 Charge (a.u.)    Spin (a.u.)
  --------------------------------------------------------
      1 C                     0.021814      -0.124687
      2 C                    -0.140437       0.735565
      3 C                    -0.133953      -0.234364
      4 C                    -0.024002      -0.028300
      5 C                    -0.063356       0.042014
      6 N                    -0.207385      -0.002305
      7 H                     0.130574       0.008981
      8 H                     0.138394      -0.028082
      9 H                     0.140296       0.013291
     10 H                     0.131633       0.004016
     11 H                     0.134729       0.001293
     12 C                    -0.277202       0.641717
     13 H                     0.148894      -0.029138
  --------------------------------------------------------
  Sum of atomic charges =     0.000000

                    Cartesian Multipole Moments
 -----------------------------------------------------------------
    Charge (ESU x 10^10)
                 0.0000
    Dipole Moment (Debye)
         X      -2.1033      Y      -1.9838      Z       0.4819
       Tot       2.9311
    Quadrupole Moments (Debye-Ang)
        XX     -39.5052     XY      -3.5845     YY     -44.5058
        XZ       1.9746     YZ       0.1813     ZZ     -41.4146

 Frequency:      -761.91                 301.72                 366.46
 Force Cnst:      1.7425                 0.0635                 0.0873
 Red. Mass:       5.0945                 1.1844                 1.1037
 IR Intens:       67.577                 12.671                 36.937
 Frequency:       453.90                 474.74                 588.23
 Force Cnst:      0.5054                 0.5216                 0.7493
 Red. Mass:       4.1637                 3.9281                 3.6755
 IR Intens:       11.378                 12.387                  3.490
 Frequency:       716.59                 783.06                 811.58
 Force Cnst:      2.1078                 1.8856                 0.8985
 Red. Mass:       6.9668                 5.2192                 2.3153
 IR Intens:        0.787                  6.649                  5.274
 Frequency:       858.04                 875.39                 899.87
 Force Cnst:      1.3685                 1.1815                 0.8644
 Red. Mass:       3.1548                 2.6169                 1.8118
 IR Intens:        6.324                 25.126                  3.726
 Frequency:       910.93                 919.78                 940.47
 Force Cnst:      0.8972                 1.0912                 1.1309
 Red. Mass:       1.8352                 2.1891                 2.1701
 IR Intens:        7.883                 12.319                  2.844
 Frequency:       962.57                1027.09                1085.86
 Force Cnst:      0.8883                 1.0942                 1.1513
 Red. Mass:       1.6273                 1.7605                 1.6572
 IR Intens:        6.925                  5.678                  5.536
 Frequency:      1138.86                1184.63                1218.68
 Force Cnst:      1.3146                 1.7702                 1.1845
 Red. Mass:       1.7204                 2.1409                 1.3537
 IR Intens:        4.912                  5.282                  1.921
 Frequency:      1263.65                1284.06                1307.74
 Force Cnst:      1.1517                 1.3898                 2.0123
 Red. Mass:       1.2241                 1.4306                 1.9971
 IR Intens:        1.030                  3.260                 15.226
 Frequency:      1323.30                1410.08                1650.72
 Force Cnst:      1.6090                 3.1598                12.7195
 Red. Mass:       1.5595                 2.6972                 7.9227
 IR Intens:       20.149                  2.083                 27.240
 Frequency:      3147.63                3164.78                3174.32
 Force Cnst:      6.3658                 6.4324                 6.4922
 Red. Mass:       1.0905                 1.0900                 1.0936
 IR Intens:       23.503                  5.441                 15.579
 Frequency:      3181.41                3257.43                3278.05
 Force Cnst:      6.5210                 6.8496                 6.9346
 Red. Mass:       1.0935                 1.0956                 1.0953
 IR Intens:       21.645                  1.175                  0.601

 STANDARD THERMODYNAMIC QUANTITIES AT   298.15 K  AND     1.00 ATM

   This Molecule has  1 Imaginary Frequencies
   Zero point vibrational energy:       62.846 kcal/mol

   Atom    1 Element C  Has Mass   12.00000
   Atom    2 Element C  Has Mass   12.00000
   Atom    3 Element C  Has Mass   12.00000
   Atom    4 Element C  Has Mass   12.00000
   Atom    5 Element C  Has Mass   12.00000
   Atom    6 Element N  Has Mass   14.00307
   Atom    7 Element H  Has Mass    1.00783
   Atom    8 Element H  Has Mass    1.00783
   Atom    9 Element H  Has Mass    1.00783
   Atom   10 Element H  Has Mass    1.00783
   Atom   11 Element H  Has Mass    1.00783
   Atom   12 Element C  Has Mass   12.00000
   Atom   13 Element H  Has Mass    1.00783
   Molecular Mass:    92.050050 amu
   Principal axes and moments of inertia in amu*Bohr^2:
                             1           2           3
    Eigenvalues --      377.15938   457.49328   569.95696
          X               0.03768     0.99923    -0.01058
          Y               0.99858    -0.03725     0.03819
          Z              -0.03777     0.01200     0.99921
   Rotational Symmetry Number is   1
   The Molecule is an Asymmetric Top
   Translational Enthalpy:        0.889 kcal/mol
   Rotational Enthalpy:           0.889 kcal/mol
   Vibrational Enthalpy:         64.248 kcal/mol
   gas constant (RT):             0.592 kcal/mol
   Translational Entropy:        39.471  cal/mol.K
   Rotational Entropy:           26.089  cal/mol.K
   Vibrational Entropy:           6.557  cal/mol.K

   Total Enthalpy:               66.618 kcal/mol
   Total Entropy:                72.117  cal/mol.K

 Total job time:  592.75s(wall), 561.17s(cpu)
        *  Thank you very much for using Q-Chem.  Have a nice day.  *
