 Q-Chem 5.0, Q-Chem, Inc., Pleasanton, CA (2017)
 Q-Chem 5.0.2 for Intel X86 EM64T Linux

User input:
--------------------------------------------------------------
$molecule
0 2
C        1.2406094632    0.2863324682    0.2686686569
C        0.9523863634   -0.9417522938   -0.4854569997
C       -0.3891498307   -1.1270410235   -0.5951221964
C       -1.1342559329    0.3010713982    0.0126572130
C       -0.4548074901    1.5275192147   -0.4566152980
N        0.8216888770    1.5199837318   -0.2891935742
H        2.2723659968    0.3848288696    0.6093251203
H        1.7373062250   -1.6839921804   -0.6928451154
H       -0.7842085519   -2.1263648492   -0.8230456654
H       -2.2250103521    0.4572262865    0.1474727752
H       -0.9649133068    2.4493646642   -0.7506802304
C       -0.3408904672   -0.1392700560    1.2001434647
H       -0.7621520085   -0.9347277269    1.8291297891
$end

$rem
method                b3lyp
basis                 6-31g(d)
unrestricted          true
symmetry              off
sym_ignore            true
incdft                false
incfock               0
scf_convergence       8
thresh                14
jobtype               freq
scf_guess             read
scf_algorithm         diis
max_scf_cycles        100
$end

--------------------------------------------------------------

             Standard Nuclear Orientation (Angstroms)
    I     Atom           X                Y                Z
 ----------------------------------------------------------------
    1      C       1.2406094632     0.2863324682     0.2686686569
    2      C       0.9523863634    -0.9417522938    -0.4854569997
    3      C      -0.3891498307    -1.1270410235    -0.5951221964
    4      C      -1.1342559329     0.3010713982     0.0126572130
    5      C      -0.4548074901     1.5275192147    -0.4566152980
    6      N       0.8216888770     1.5199837318    -0.2891935742
    7      H       2.2723659968     0.3848288696     0.6093251203
    8      H       1.7373062250    -1.6839921804    -0.6928451154
    9      H      -0.7842085519    -2.1263648492    -0.8230456654
   10      H      -2.2250103521     0.4572262865     0.1474727752
   11      H      -0.9649133068     2.4493646642    -0.7506802304
   12      C      -0.3408904672    -0.1392700560     1.2001434647
   13      H      -0.7621520085    -0.9347277269     1.8291297891
 ----------------------------------------------------------------

    2    -286.7639704462      7.87E-10 Convergence criterion met
 Total energy in the final basis set = -286.76397045

                    Orbital Energies (a.u.)
 --------------------------------------------------------------

 Alpha MOs
 -- Occupied --
-14.324 -10.237 -10.226 -10.226 -10.225 -10.205 -10.195  -0.951
 -0.821  -0.755  -0.671  -0.610  -0.571  -0.529  -0.497  -0.456
 -0.435  -0.410  -0.392  -0.377  -0.331  -0.291  -0.272  -0.258
 -0.137

 Beta MOs
 -- Occupied --
-14.324 -10.238 -10.227 -10.226 -10.226 -10.192 -10.190  -0.949
 -0.813  -0.751  -0.664  -0.604  -0.559  -0.525  -0.493  -0.451
 -0.432  -0.406  -0.389  -0.375  -0.318  -0.281  -0.266  -0.248

          Ground-State Mulliken Net Atomic Charges

     Atom                 Charge (a.u.)    Spin (a.u.)
  --------------------------------------------------------
      1 C                    -0.060781      -0.075404
      2 C                    -0.077210       0.346675
      3 C                    -0.125503      -0.132536
      4 C                    -0.237004      -0.026108
      5 C                     0.111093      -0.013246
      6 N                    -0.326502       0.013699
      7 H                     0.144062       0.002763
      8 H                     0.150462      -0.018921
      9 H                     0.154142       0.016321
     10 H                     0.146791       0.008954
     11 H                     0.153515       0.000986
     12 C                    -0.181110       0.916095
     13 H                     0.148045      -0.039279
  --------------------------------------------------------
  Sum of atomic charges =    -0.000000

                    Cartesian Multipole Moments
 -----------------------------------------------------------------
    Charge (ESU x 10^10)
                -0.0000
    Dipole Moment (Debye)
         X      -1.3460      Y      -1.8512      Z      -0.0843
       Tot       2.2904
    Quadrupole Moments (Debye-Ang)
        XX     -37.2999     XY      -3.8428     YY     -40.3786
        XZ       0.6932     YZ      -0.1664     ZZ     -43.6788

 Frequency:      -833.50                -245.63                 371.38
 Force Cnst:      1.2767                 0.1617                 0.4851
 Red. Mass:       3.1190                 4.5484                 5.9696
 IR Intens:      103.074                 20.939                  6.626
 Frequency:       403.51                 423.99                 493.45
 Force Cnst:      0.3717                 0.1338                 0.4762
 Red. Mass:       3.8752                 1.2633                 3.3190
 IR Intens:        1.745                 12.287                 13.046
 Frequency:       570.04                 676.87                 688.75
 Force Cnst:      0.6065                 1.6216                 0.3846
 Red. Mass:       3.1680                 6.0074                 1.3760
 IR Intens:        0.548                  1.472                 37.870
 Frequency:       771.87                 881.92                 894.50
 Force Cnst:      1.5626                 0.7096                 1.3760
 Red. Mass:       4.4514                 1.5486                 2.9189
 IR Intens:        8.674                  0.727                 12.713
 Frequency:       910.83                 983.09                1018.69
 Force Cnst:      0.6965                 1.0724                 1.4471
 Red. Mass:       1.4250                 1.8832                 2.3668
 IR Intens:        7.963                  0.580                  7.503
 Frequency:      1050.54                1064.22                1101.91
 Force Cnst:      1.3570                 1.0950                 1.0454
 Red. Mass:       2.0870                 1.6409                 1.4613
 IR Intens:       19.246                 23.301                  4.335
 Frequency:      1121.95                1158.97                1192.91
 Force Cnst:      1.2370                 0.9636                 1.3443
 Red. Mass:       1.6680                 1.2176                 1.6033
 IR Intens:        5.575                  8.855                  3.215
 Frequency:      1283.87                1329.70                1378.21
 Force Cnst:      1.4660                 1.4921                 1.9291
 Red. Mass:       1.5096                 1.4323                 1.7238
 IR Intens:       21.649                 10.170                  8.349
 Frequency:      1381.09                1539.41                1649.64
 Force Cnst:      1.8505                 5.0512                11.1057
 Red. Mass:       1.6467                 3.6177                 6.9266
 IR Intens:       19.700                  9.169                 18.101
 Frequency:      2973.98                3075.25                3102.73
 Force Cnst:      5.6715                 6.0515                 6.1697
 Red. Mass:       1.0884                 1.0861                 1.0877
 IR Intens:       17.381                  1.362                 11.947
 Frequency:      3106.12                3139.60                3152.08
 Force Cnst:      6.2533                 6.3488                 6.3773
 Red. Mass:       1.1001                 1.0932                 1.0894
 IR Intens:        9.532                 23.215                 19.357

 STANDARD THERMODYNAMIC QUANTITIES AT   298.15 K  AND     1.00 ATM

   This Molecule has  2 Imaginary Frequencies
   Zero point vibrational energy:       61.316 kcal/mol

   Atom    1 Element C  Has Mass   12.00000
   Atom    2 Element C  Has Mass   12.00000
   Atom    3 Element C  Has Mass   12.00000
   Atom    4 Element C  Has Mass   12.00000
   Atom    5 Element C  Has Mass   12.00000
   Atom    6 Element N  Has Mass   14.00307
   Atom    7 Element H  Has Mass    1.00783
   Atom    8 Element H  Has Mass    1.00783
   Atom    9 Element H  Has Mass    1.00783
   Atom   10 Element H  Has Mass    1.00783
   Atom   11 Element H  Has Mass    1.00783
   Atom   12 Element C  Has Mass   12.00000
   Atom   13 Element H  Has Mass    1.00783
   Molecular Mass:    92.050050 amu
   Principal axes and moments of inertia in amu*Bohr^2:
                             1           2           3
    Eigenvalues --      387.61043   475.54664   622.60228
          X              -0.01899     0.99395     0.10816
          Y               0.99960     0.01658     0.02310
          Z              -0.02116    -0.10856     0.99386
   Rotational Symmetry Number is   1
   The Molecule is an Asymmetric Top
   Translational Enthalpy:        0.889 kcal/mol
   Rotational Enthalpy:           0.889 kcal/mol
   Vibrational Enthalpy:         62.628 kcal/mol
   gas constant (RT):             0.592 kcal/mol
   Translational Entropy:        39.471  cal/mol.K
   Rotational Entropy:           26.242  cal/mol.K
   Vibrational Entropy:           6.048  cal/mol.K

   Total Enthalpy:               64.998 kcal/mol
   Total Entropy:                71.761  cal/mol.K

 Total job time:  287.92s(wall), 262.02s(cpu)
        *  Thank you very much for using Q-Chem.  Have a nice day.  *
