 Q-Chem 5.0, Q-Chem, Inc., Pleasanton, CA (2017)
 Q-Chem 5.0.2 for Intel X86 EM64T Linux

User input:
--------------------------------------------------------------
$molecule
0 2
C        1.2406094632    0.2863324682    0.2686686569
C        0.9523863634   -0.9417522938   -0.4854569997
C       -0.3891498307   -1.1270410235   -0.5951221964
C       -1.1342559329    0.3010713982    0.0126572130
C       -0.4548074901    1.5275192147   -0.4566152980
N        0.8216888770    1.5199837318   -0.2891935742
H        2.2723659968    0.3848288696    0.6093251203
H        1.7373062250   -1.6839921804   -0.6928451154
H       -0.7842085519   -2.1263648492   -0.8230456654
H       -2.2250103521    0.4572262865    0.1474727752
H       -0.9649133068    2.4493646642   -0.7506802304
C       -0.3408904672   -0.1392700560    1.2001434647
H       -0.7621520085   -0.9347277269    1.8291297891
$end

$rem
method                b3lyp
basis                 6-31g(d)
unrestricted          true
symmetry              off
sym_ignore            true
incdft                false
incfock               0
scf_convergence       6
thresh                14
jobtype               sp
scf_guess             read
scf_algorithm         diis
max_scf_cycles        100
stability_analysis    true
max_cis_cycles        100
cis_n_roots           4
$end

--------------------------------------------------------------

             Standard Nuclear Orientation (Angstroms)
    I     Atom           X                Y                Z
 ----------------------------------------------------------------
    1      C       1.2406094632     0.2863324682     0.2686686569
    2      C       0.9523863634    -0.9417522938    -0.4854569997
    3      C      -0.3891498307    -1.1270410235    -0.5951221964
    4      C      -1.1342559329     0.3010713982     0.0126572130
    5      C      -0.4548074901     1.5275192147    -0.4566152980
    6      N       0.8216888770     1.5199837318    -0.2891935742
    7      H       2.2723659968     0.3848288696     0.6093251203
    8      H       1.7373062250    -1.6839921804    -0.6928451154
    9      H      -0.7842085519    -2.1263648492    -0.8230456654
   10      H      -2.2250103521     0.4572262865     0.1474727752
   11      H      -0.9649133068     2.4493646642    -0.7506802304
   12      C      -0.3408904672    -0.1392700560     1.2001434647
   13      H      -0.7621520085    -0.9347277269     1.8291297891
 ----------------------------------------------------------------

    2    -286.7639704461      1.55E-09 Convergence criterion met
 Total energy in the final basis set = -286.76397045

         TDDFT/TDA Excitation Energies
 ---------------------------------------------------

 Excited state   1: excitation energy (eV) =    1.2506
 Total energy for state  1:                  -286.71801278 au
    <S**2>     :  0.7973
    Trans. Mom.: -0.0851 X   0.0103 Y   0.1024 Z
    Strength   :     0.0005460163
    S(  1) --> V(  1) amplitude =  0.9836 alpha

 Excited state   2: excitation energy (eV) =    2.3840
 Total energy for state  2:                  -286.67636111 au
    <S**2>     :  0.8547
    Trans. Mom.: -0.1984 X   0.1586 Y   0.2036 Z
    Strength   :     0.0061893862
    S(  1) --> V(  2) amplitude =  0.9682 alpha

 Excited state   3: excitation energy (eV) =    3.9411
 Total energy for state  3:                  -286.61913824 au
    <S**2>     :  2.4461
    Trans. Mom.: -0.0288 X  -0.0077 Y   0.0546 Z
    Strength   :     0.0003742813
    D( 23) --> V(  1) amplitude =  0.3353 alpha
    D( 24) --> V(  1) amplitude = -0.5054 alpha
    S(  1) --> V(  3) amplitude =  0.3760 alpha
    D( 24) --> S(  1) amplitude =  0.6154 beta

 Excited state   4: excitation energy (eV) =    4.0544
 Total energy for state  4:                  -286.61497336 au
    <S**2>     :  2.1635
    Trans. Mom.: -0.0707 X  -0.0160 Y   0.0390 Z
    Strength   :     0.0006731506
    D( 23) --> V(  1) amplitude = -0.4934 alpha
    D( 23) --> V(  2) amplitude =  0.1722 alpha
    D( 24) --> V(  1) amplitude = -0.2233 alpha
    S(  1) --> V(  3) amplitude =  0.5377 alpha
    D( 22) --> S(  1) amplitude = -0.2387 beta
    D( 23) --> S(  1) amplitude =  0.4803 beta

 ---------------------------------------------------

                    Orbital Energies (a.u.)
 --------------------------------------------------------------

 Alpha MOs
 -- Occupied --
-14.324 -10.237 -10.226 -10.226 -10.225 -10.205 -10.195  -0.951
 -0.821  -0.755  -0.671  -0.610  -0.571  -0.529  -0.497  -0.456
 -0.435  -0.410  -0.392  -0.377  -0.331  -0.291  -0.272  -0.258
 -0.137

 Beta MOs
 -- Occupied --
-14.324 -10.238 -10.227 -10.226 -10.226 -10.192 -10.190  -0.949
 -0.813  -0.751  -0.664  -0.604  -0.559  -0.525  -0.493  -0.451
 -0.432  -0.406  -0.389  -0.375  -0.318  -0.281  -0.266  -0.248

          Ground-State Mulliken Net Atomic Charges

     Atom                 Charge (a.u.)    Spin (a.u.)
  --------------------------------------------------------
      1 C                    -0.060781      -0.075404
      2 C                    -0.077210       0.346676
      3 C                    -0.125503      -0.132536
      4 C                    -0.237004      -0.026107
      5 C                     0.111093      -0.013250
      6 N                    -0.326502       0.013703
      7 H                     0.144062       0.002763
      8 H                     0.150462      -0.018921
      9 H                     0.154142       0.016321
     10 H                     0.146791       0.008954
     11 H                     0.153515       0.000986
     12 C                    -0.181110       0.916095
     13 H                     0.148045      -0.039279
  --------------------------------------------------------
  Sum of atomic charges =    -0.000000

                    Cartesian Multipole Moments
 -----------------------------------------------------------------
    Charge (ESU x 10^10)
                -0.0000
    Dipole Moment (Debye)
         X      -1.3460      Y      -1.8512      Z      -0.0843
       Tot       2.2904
    Quadrupole Moments (Debye-Ang)
        XX     -37.2999     XY      -3.8428     YY     -40.3786
        XZ       0.6932     YZ      -0.1664     ZZ     -43.6788

 Total job time:  118.43s(wall), 91.36s(cpu)
        *  Thank you very much for using Q-Chem.  Have a nice day.  *
