 Q-Chem 5.0, Q-Chem, Inc., Pleasanton, CA (2017)
 Q-Chem 5.0.2 for Intel X86 EM64T Linux

User input:
--------------------------------------------------------------
$molecule
0 2
C        1.1304038735    0.2058728035    0.4472418737
C        0.9635959528   -0.9094625034   -0.5792380224
C       -0.4327732329   -1.0285283241   -0.5350123166
C       -1.1026342522    0.2372174244    0.0146348289
C       -0.4222232878    1.4885780494   -0.4856696085
N        0.8336718974    1.5108779240   -0.2302191769
H        2.0531227355    0.2421817237    1.0232438464
H        1.7006385913   -1.5223848018   -1.0774770623
H       -1.0382739155   -1.8645032019   -0.8750759224
H       -2.1835061792    0.1984042600    0.1249700767
H       -0.9118506795    2.2753419835   -1.0556070699
C       -0.2020286659   -0.1924142041    1.1286590747
H       -0.4191738524   -0.6680026297    2.0739874181
$end

$rem
method                b3lyp
basis                 6-31+g(d,p)
unrestricted          true
symmetry              off
sym_ignore            true
incdft                false
incfock               0
scf_convergence       8
thresh                14
jobtype               freq
scf_guess             read
scf_algorithm         diis
max_scf_cycles        100
$end

--------------------------------------------------------------

             Standard Nuclear Orientation (Angstroms)
    I     Atom           X                Y                Z
 ----------------------------------------------------------------
    1      C       1.1304038735     0.2058728035     0.4472418737
    2      C       0.9635959528    -0.9094625034    -0.5792380224
    3      C      -0.4327732329    -1.0285283241    -0.5350123166
    4      C      -1.1026342522     0.2372174244     0.0146348289
    5      C      -0.4222232878     1.4885780494    -0.4856696085
    6      N       0.8336718974     1.5108779240    -0.2302191769
    7      H       2.0531227355     0.2421817237     1.0232438464
    8      H       1.7006385913    -1.5223848018    -1.0774770623
    9      H      -1.0382739155    -1.8645032019    -0.8750759224
   10      H      -2.1835061792     0.1984042600     0.1249700767
   11      H      -0.9118506795     2.2753419835    -1.0556070699
   12      C      -0.2020286659    -0.1924142041     1.1286590747
   13      H      -0.4191738524    -0.6680026297     2.0739874181
 ----------------------------------------------------------------

    2    -286.8438486144      4.24E-10 Convergence criterion met
 Total energy in the final basis set = -286.84384861

                    Orbital Energies (a.u.)
 --------------------------------------------------------------

 Alpha MOs
 -- Occupied --
-14.334 -10.234 -10.231 -10.228 -10.225 -10.222 -10.199  -0.969
 -0.850  -0.750  -0.690  -0.601  -0.587  -0.546  -0.524  -0.474
 -0.436  -0.418  -0.409  -0.387  -0.351  -0.307  -0.286  -0.266
 -0.152

 Beta MOs
 -- Occupied --
-14.334 -10.236 -10.232 -10.228 -10.225 -10.214 -10.189  -0.965
 -0.844  -0.743  -0.680  -0.597  -0.577  -0.544  -0.516  -0.469
 -0.432  -0.413  -0.407  -0.385  -0.346  -0.291  -0.277  -0.262

          Ground-State Mulliken Net Atomic Charges

     Atom                 Charge (a.u.)    Spin (a.u.)
  --------------------------------------------------------
      1 C                     0.016206      -0.124039
      2 C                    -0.133389       0.738548
      3 C                    -0.139386      -0.230694
      4 C                    -0.018276      -0.032312
      5 C                    -0.063828       0.042215
      6 N                    -0.206790      -0.002957
      7 H                     0.130392       0.008293
      8 H                     0.138857      -0.030221
      9 H                     0.140557       0.012653
     10 H                     0.131586       0.003611
     11 H                     0.134910       0.001347
     12 C                    -0.278140       0.641642
     13 H                     0.147299      -0.028088
  --------------------------------------------------------
  Sum of atomic charges =     0.000000

                    Cartesian Multipole Moments
 -----------------------------------------------------------------
    Charge (ESU x 10^10)
                 0.0000
    Dipole Moment (Debye)
         X      -2.1050      Y      -1.9877      Z       0.5257
       Tot       2.9425
    Quadrupole Moments (Debye-Ang)
        XX     -39.4594     XY      -3.6674     YY     -44.4589
        XZ       2.0206     YZ       0.2277     ZZ     -41.4539

 Frequency:      -745.66                 261.22                 347.45
 Force Cnst:      1.7887                 0.0475                 0.0753
 Red. Mass:       5.4603                 1.1802                 1.0583
 IR Intens:       59.889                 14.647                 38.287
 Frequency:       449.27                 475.28                 590.72
 Force Cnst:      0.5535                 0.5332                 0.7645
 Red. Mass:       4.6544                 4.0063                 3.7186
 IR Intens:        7.307                 10.311                  3.784
 Frequency:       716.63                 782.67                 809.91
 Force Cnst:      2.0583                 1.8081                 0.8970
 Red. Mass:       6.8026                 5.0097                 2.3209
 IR Intens:        0.644                  5.834                  5.749
 Frequency:       856.33                 874.57                 897.00
 Force Cnst:      1.3349                 1.1269                 0.8550
 Red. Mass:       3.0898                 2.5005                 1.8036
 IR Intens:        4.704                 26.467                  4.014
 Frequency:       908.70                 918.78                 939.84
 Force Cnst:      0.8778                 1.1519                 1.1232
 Red. Mass:       1.8044                 2.3160                 2.1583
 IR Intens:       11.218                  9.218                  2.572
 Frequency:       961.67                1024.73                1083.56
 Force Cnst:      0.8947                 1.0883                 1.1571
 Red. Mass:       1.6421                 1.7591                 1.6727
 IR Intens:        7.093                  6.052                  5.508
 Frequency:      1137.52                1180.50                1216.76
 Force Cnst:      1.3234                 1.7675                 1.1814
 Red. Mass:       1.7359                 2.1527                 1.3543
 IR Intens:        4.986                  5.389                  1.690
 Frequency:      1260.86                1281.35                1306.70
 Force Cnst:      1.1480                 1.3888                 2.0108
 Red. Mass:       1.2256                 1.4357                 1.9988
 IR Intens:        1.102                  3.355                 14.740
 Frequency:      1320.78                1404.88                1642.85
 Force Cnst:      1.6132                 3.0851                12.5068
 Red. Mass:       1.5696                 2.6530                 7.8650
 IR Intens:       20.412                  2.071                 26.719
 Frequency:      3159.30                3171.64                3183.29
 Force Cnst:      6.4132                 6.4592                 6.5315
 Red. Mass:       1.0905                 1.0898                 1.0940
 IR Intens:       23.073                  6.377                 16.389
 Frequency:      3190.26                3265.15                3273.62
 Force Cnst:      6.5556                 6.8776                 6.9211
 Red. Mass:       1.0932                 1.0949                 1.0961
 IR Intens:       18.498                  0.554                  0.681

 STANDARD THERMODYNAMIC QUANTITIES AT   298.15 K  AND     1.00 ATM

   This Molecule has  1 Imaginary Frequencies
   Zero point vibrational energy:       62.749 kcal/mol

   Atom    1 Element C  Has Mass   12.00000
   Atom    2 Element C  Has Mass   12.00000
   Atom    3 Element C  Has Mass   12.00000
   Atom    4 Element C  Has Mass   12.00000
   Atom    5 Element C  Has Mass   12.00000
   Atom    6 Element N  Has Mass   14.00307
   Atom    7 Element H  Has Mass    1.00783
   Atom    8 Element H  Has Mass    1.00783
   Atom    9 Element H  Has Mass    1.00783
   Atom   10 Element H  Has Mass    1.00783
   Atom   11 Element H  Has Mass    1.00783
   Atom   12 Element C  Has Mass   12.00000
   Atom   13 Element H  Has Mass    1.00783
   Molecular Mass:    92.050050 amu
   Principal axes and moments of inertia in amu*Bohr^2:
                             1           2           3
    Eigenvalues --      377.28183   457.87819   570.69843
          X               0.03189     0.99943    -0.01142
          Y               0.99898    -0.03151     0.03221
          Z              -0.03183     0.01243     0.99942
   Rotational Symmetry Number is   1
   The Molecule is an Asymmetric Top
   Translational Enthalpy:        0.889 kcal/mol
   Rotational Enthalpy:           0.889 kcal/mol
   Vibrational Enthalpy:         64.201 kcal/mol
   gas constant (RT):             0.592 kcal/mol
   Translational Entropy:        39.471  cal/mol.K
   Rotational Entropy:           26.091  cal/mol.K
   Vibrational Entropy:           6.906  cal/mol.K

   Total Enthalpy:               66.571 kcal/mol
   Total Entropy:                72.469  cal/mol.K

 Total job time:  597.70s(wall), 562.25s(cpu)
        *  Thank you very much for using Q-Chem.  Have a nice day.  *
