 Q-Chem 5.0, Q-Chem, Inc., Pleasanton, CA (2017)
 Q-Chem 5.0.2 for Intel X86 EM64T Linux

User input:
--------------------------------------------------------------
$molecule
0 2
C        1.1282310772    0.2062317036    0.4520049939
C        0.9624505696   -0.9148579879   -0.5671201834
C       -0.4329751976   -1.0288820820   -0.5255551631
C       -1.1030832298    0.2387587796    0.0153908199
C       -0.4171782309    1.4856148554   -0.4892121855
N        0.8374042644    1.5085097637   -0.2355968477
H        2.0499252085    0.2457672072    1.0316581108
H        1.6965560349   -1.5039672271   -1.0988552471
H       -1.0403964226   -1.8648458146   -0.8651759640
H       -2.1848401477    0.2021763845    0.1235858354
H       -0.9056730070    2.2694323998   -1.0659230858
C       -0.2049091343   -0.1815734643    1.1348471268
H       -0.4165427996   -0.6891860145    2.0643897293
$end

$rem
method                b3lyp
basis                 6-31g(d)
unrestricted          true
symmetry              off
sym_ignore            true
incdft                false
incfock               0
scf_convergence       6
thresh                14
jobtype               sp
scf_guess             read
scf_algorithm         diis
max_scf_cycles        100
stability_analysis    true
max_cis_cycles        100
cis_n_roots           4
$end

--------------------------------------------------------------

             Standard Nuclear Orientation (Angstroms)
    I     Atom           X                Y                Z
 ----------------------------------------------------------------
    1      C       1.1282310772     0.2062317036     0.4520049939
    2      C       0.9624505696    -0.9148579879    -0.5671201834
    3      C      -0.4329751976    -1.0288820820    -0.5255551631
    4      C      -1.1030832298     0.2387587796     0.0153908199
    5      C      -0.4171782309     1.4856148554    -0.4892121855
    6      N       0.8374042644     1.5085097637    -0.2355968477
    7      H       2.0499252085     0.2457672072     1.0316581108
    8      H       1.6965560349    -1.5039672271    -1.0988552471
    9      H      -1.0403964226    -1.8648458146    -0.8651759640
   10      H      -2.1848401477     0.2021763845     0.1235858354
   11      H      -0.9056730070     2.2694323998    -1.0659230858
   12      C      -0.2049091343    -0.1815734643     1.1348471268
   13      H      -0.4165427996    -0.6891860145     2.0643897293
 ----------------------------------------------------------------

    2    -286.8208212109      3.14E-09 Convergence criterion met
 Total energy in the final basis set = -286.82082121

         TDDFT/TDA Excitation Energies
 ---------------------------------------------------

 Excited state   1: excitation energy (eV) =    2.4786
 Total energy for state  1:                  -286.72973503 au
    <S**2>     :  0.7850
    Trans. Mom.:  0.1287 X   0.1357 Y  -0.3225 Z
    Strength   :     0.0084399550
    S(  1) --> V(  1) amplitude =  0.9293 alpha
    S(  1) --> V(  2) amplitude = -0.2991 alpha

 Excited state   2: excitation energy (eV) =    2.9072
 Total energy for state  2:                  -286.71398358 au
    <S**2>     :  0.7873
    Trans. Mom.: -0.1455 X   0.3344 Y   0.1615 Z
    Strength   :     0.0113282371
    S(  1) --> V(  1) amplitude =  0.3343 alpha
    S(  1) --> V(  2) amplitude =  0.9095 alpha

 Excited state   3: excitation energy (eV) =    4.4998
 Total energy for state  3:                  -286.65545704 au
    <S**2>     :  2.4943
    Trans. Mom.: -0.0301 X  -0.0156 Y   0.0682 Z
    Strength   :     0.0006396736
    D( 23) --> V(  1) amplitude =  0.3088 alpha
    D( 23) --> V(  2) amplitude =  0.1548 alpha
    D( 24) --> V(  1) amplitude = -0.4916 alpha
    D( 24) --> V(  2) amplitude = -0.1819 alpha
    D( 23) --> S(  1) amplitude =  0.3412 beta
    D( 23) --> V(  1) amplitude =  0.3433 beta
    D( 24) --> S(  1) amplitude =  0.4342 beta
    D( 24) --> V(  1) amplitude =  0.3504 beta

 Excited state   4: excitation energy (eV) =    4.6047
 Total energy for state  4:                  -286.65160132 au
    <S**2>     :  2.4343
    Trans. Mom.: -0.0473 X  -0.0469 Y   0.1374 Z
    Strength   :     0.0026307240
    D( 22) --> V(  1) amplitude =  0.1856 alpha
    D( 23) --> V(  1) amplitude = -0.4669 alpha
    D( 23) --> V(  2) amplitude = -0.1930 alpha
    D( 24) --> V(  1) amplitude = -0.2357 alpha
    D( 22) --> S(  1) amplitude =  0.3558 beta
    D( 22) --> V(  1) amplitude =  0.3757 beta
    D( 23) --> S(  1) amplitude = -0.2059 beta
    D( 23) --> V(  1) amplitude = -0.1694 beta
    D( 24) --> S(  1) amplitude =  0.4058 beta
    D( 24) --> V(  1) amplitude =  0.2640 beta

 ---------------------------------------------------

                    Orbital Energies (a.u.)
 --------------------------------------------------------------

 Alpha MOs
 -- Occupied --
-14.318 -10.221 -10.220 -10.217 -10.214 -10.209 -10.186  -0.956
 -0.837  -0.739  -0.679  -0.591  -0.576  -0.536  -0.515  -0.463
 -0.425  -0.408  -0.397  -0.376  -0.340  -0.295  -0.273  -0.252
 -0.140

 Beta MOs
 -- Occupied --
-14.318 -10.224 -10.220 -10.216 -10.214 -10.200 -10.176  -0.952
 -0.832  -0.731  -0.668  -0.586  -0.567  -0.534  -0.507  -0.458
 -0.421  -0.403  -0.395  -0.374  -0.335  -0.279  -0.263  -0.248

          Ground-State Mulliken Net Atomic Charges

     Atom                 Charge (a.u.)    Spin (a.u.)
  --------------------------------------------------------
      1 C                    -0.095313      -0.069587
      2 C                    -0.077534       0.682770
      3 C                    -0.131173      -0.229324
      4 C                    -0.199147       0.005048
      5 C                     0.099449       0.045164
      6 N                    -0.338516      -0.005286
      7 H                     0.139905       0.008204
      8 H                     0.141199      -0.028660
      9 H                     0.148809       0.014356
     10 H                     0.142609       0.003568
     11 H                     0.144841       0.001461
     12 C                    -0.133598       0.603544
     13 H                     0.158469      -0.031257
  --------------------------------------------------------
  Sum of atomic charges =    -0.000000

                    Cartesian Multipole Moments
 -----------------------------------------------------------------
    Charge (ESU x 10^10)
                 0.0000
    Dipole Moment (Debye)
         X      -1.8890      Y      -1.8712      Z       0.4412
       Tot       2.6953
    Quadrupole Moments (Debye-Ang)
        XX     -38.5294     XY      -3.2084     YY     -42.7166
        XZ       1.5138     YZ       0.2179     ZZ     -39.7525

 Total job time:  113.53s(wall), 90.13s(cpu)
        *  Thank you very much for using Q-Chem.  Have a nice day.  *
