 Q-Chem 5.0, Q-Chem, Inc., Pleasanton, CA (2017)
 Q-Chem 5.0.2 for Intel X86 EM64T Linux

User input:
--------------------------------------------------------------
$molecule
0 2
C        1.2625624710    0.1812656929   -1.0995116696
C        0.4717282804   -1.1722486406   -1.0683553808
C       -0.8315019382   -0.5947928336   -2.2608565023
C       -1.1739242036   -0.0377968641   -0.4279738682
C       -0.6681825465    0.8877224071   -1.8403004471
N        0.9144030829    1.3247088567   -1.5144951787
H        2.0634561620    0.1050561221   -0.3162890075
H        1.1960142664   -2.0360153149   -1.0594182242
H       -1.2431354415   -1.6057855520   -2.2817441497
H       -2.0306399820    0.1896045413    0.1935550601
H       -1.4336796137    1.6040551649   -2.2545408615
C       -0.0611378711   -0.6701134968    0.2918226591
H        0.3573401161   -0.5356916704    1.2274001805
$end

$rem
method                b3lyp
basis                 6-31g(d)
unrestricted          true
symmetry              off
sym_ignore            true
incdft                false
incfock               0
scf_convergence       8
thresh                14
jobtype               opt
scf_guess             read
scf_algorithm         diis
max_scf_cycles        100
geom_opt_tol_gradient 600
geom_opt_tol_displacement 2400
geom_opt_tol_energy   200
geom_opt_max_cycles   100
$end

--------------------------------------------------------------

    2    -286.6392649246      2.35E-09 Convergence criterion met
 Total energy in the final basis set = -286.63926492
   16    -286.6815949414      6.33E-09 Convergence criterion met
 Total energy in the final basis set = -286.68159494
   15    -286.7175180038      7.26E-09 Convergence criterion met
 Total energy in the final basis set = -286.71751800
   15    -286.7460598533      5.16E-09 Convergence criterion met
 Total energy in the final basis set = -286.74605985
   15    -286.7674597903      7.69E-09 Convergence criterion met
 Total energy in the final basis set = -286.76745979
   15    -286.7829940531      5.87E-09 Convergence criterion met
 Total energy in the final basis set = -286.78299405
   15    -286.7946949883      4.51E-09 Convergence criterion met
 Total energy in the final basis set = -286.79469499
   15    -286.8040540114      3.97E-09 Convergence criterion met
   13    -286.8381907666      6.15E-09 Convergence criterion met
 Total energy in the final basis set = -286.83819077
   14    -286.8382474373      3.49E-09 Convergence criterion met
 Total energy in the final basis set = -286.83824744
   13    -286.8382628305      5.06E-09 Convergence criterion met
 Total energy in the final basis set = -286.83826283
   11    -286.8383585682      9.54E-09 Convergence criterion met
 Total energy in the final basis set = -286.83835857
   11    -286.8383636688      6.38E-09 Convergence criterion met
 Total energy in the final basis set = -286.83836367
   11    -286.8383733493      3.54E-09 Convergence criterion met
 Total energy in the final basis set = -286.83837335

             Standard Nuclear Orientation (Angstroms)
    I     Atom           X                Y                Z
 ----------------------------------------------------------------
    1      C       1.4341905337     0.2101864773    -1.1642312732
    2      C       0.5929845999    -1.0403547495    -0.9383208052
    3      C      -0.7168317616    -0.6866543808    -1.7308624621
    4      C      -1.2538106801    -0.0572377034    -0.4312986677
    5      C      -0.6178092092     0.7923539317    -1.6231573991
    6      N       0.7461097510     1.2417752766    -1.4949586695
    7      H       2.4970907451     0.2797327118    -0.9381625235
    8      H       1.0844082014    -2.0104120694    -1.0401910624
    9      H      -1.2334998658    -1.2811630966    -2.4782968235
   10      H      -2.2710176807     0.1724542087    -0.1297424028
   11      H      -1.3162055934     1.4493765833    -2.1313812353
   12      C      -0.2145908640    -0.7434959464     0.3240890924
   13      H       0.0922846059    -0.6865928308     1.3658068419
 ----------------------------------------------------------------

   10    -286.8383746466      6.88E-09 Convergence criterion met
 Total energy in the final basis set = -286.83837465
 Final energy is   -286.838374646605
 **  OPTIMIZATION CONVERGED  **

                    Orbital Energies (a.u.)
 --------------------------------------------------------------

 Alpha MOs
 -- Occupied --
-14.320 -10.224 -10.220 -10.210 -10.209 -10.208 -10.206  -0.968
 -0.856  -0.749  -0.664  -0.606  -0.571  -0.535  -0.517  -0.467
 -0.439  -0.405  -0.400  -0.356  -0.336  -0.298  -0.273  -0.256
 -0.182

 Beta MOs
 -- Occupied --
-14.319 -10.222 -10.219 -10.211 -10.209 -10.207 -10.193  -0.964
 -0.850  -0.741  -0.652  -0.601  -0.567  -0.528  -0.511  -0.461
 -0.434  -0.402  -0.394  -0.348  -0.332  -0.291  -0.262  -0.251

          Ground-State Mulliken Net Atomic Charges

     Atom                 Charge (a.u.)    Spin (a.u.)
  --------------------------------------------------------
      1 C                     0.088923       0.046894
      2 C                    -0.258754      -0.065718
      3 C                    -0.107837       0.077997
      4 C                    -0.163766      -0.095839
      5 C                    -0.019083       0.096769
      6 N                    -0.342329       0.039124
      7 H                     0.143043       0.001380
      8 H                     0.142867       0.022621
      9 H                     0.148127      -0.000778
     10 H                     0.147248       0.005283
     11 H                     0.151385       0.002865
     12 C                    -0.066059       0.888717
     13 H                     0.136236      -0.019314
  --------------------------------------------------------
  Sum of atomic charges =    -0.000000

                    Cartesian Multipole Moments
 -----------------------------------------------------------------
    Charge (ESU x 10^10)
                 0.0000
    Dipole Moment (Debye)
         X      -0.7647      Y      -1.8871      Z       0.2394
       Tot       2.0502
    Quadrupole Moments (Debye-Ang)
        XX     -36.8328     XY      -3.4573     YY     -43.8291
        XZ       2.8255     YZ       3.2243     ZZ     -40.2913

 Total job time:  722.00s(wall), 1009.71s(cpu)
        *  Thank you very much for using Q-Chem.  Have a nice day.  *
