 Q-Chem 5.0, Q-Chem, Inc., Pleasanton, CA (2017)
 Q-Chem 5.0.2 for Intel X86 EM64T Linux

User input:
--------------------------------------------------------------
$molecule
0 2
C        0.6793813293    0.0144034780    0.2324754230
C        0.9307072938   -1.2724333706   -0.5326549351
C        0.1913295804   -2.3546057565   -0.4683845225
C       -1.2574839109    1.2142972353    0.5400515468
C       -0.3784631796    1.8185081527   -0.4713810820
N        0.7168058109    1.1711325617   -0.6822993779
H        1.5158023204    0.1559282970    0.9392533719
H        1.8170845340   -1.2401261616   -1.1769649158
H        0.1996971139   -3.3452221742   -0.9051795593
H       -2.2184146026    1.6040119797    0.8563572462
H       -0.5982761034    2.7360147588   -1.0162654618
C       -0.6301719416    0.1053028345    0.9710365686
H       -0.9679982446   -0.6072118346    1.7139556980
$end

$rem
method                b3lyp
basis                 6-31g(d)
unrestricted          true
symmetry              off
sym_ignore            true
incdft                false
incfock               0
scf_convergence       8
thresh                14
jobtype               opt
scf_guess             read
scf_algorithm         diis
max_scf_cycles        100
geom_opt_tol_gradient 600
geom_opt_tol_displacement 2400
geom_opt_tol_energy   200
geom_opt_max_cycles   100
$end

--------------------------------------------------------------

    2    -286.8505605013      3.35E-09 Convergence criterion met
 Total energy in the final basis set = -286.85056050

             Standard Nuclear Orientation (Angstroms)
    I     Atom           X                Y                Z
 ----------------------------------------------------------------
    1      C       0.6806630076     0.0149149202     0.2332387842
    2      C       0.9330532288    -1.2727641172    -0.5294647524
    3      C       0.1897928515    -2.3523023916    -0.4690426748
    4      C      -1.2566521442     1.2142772091     0.5411577541
    5      C      -0.3787836684     1.8167054221    -0.4725029970
    6      N       0.7176670843     1.1706283608    -0.6824992666
    7      H       1.5160869365     0.1577903526     0.9409244495
    8      H       1.8184897940    -1.2401399249    -1.1750631540
    9      H       0.1947528322    -3.3415923476    -0.9091079284
   10      H      -2.2182859124     1.6031194248     0.8567722151
   11      H      -0.6008377870     2.7324447336    -1.0194889998
   12      C      -0.6290622146     0.1052060907     0.9715921961
   13      H      -0.9668840082    -0.6082877323     1.7134843741
 ----------------------------------------------------------------

   11    -286.8505623999      8.35E-09 Convergence criterion met
 Total energy in the final basis set = -286.85056240
 Final energy is   -286.850562399864
 **  OPTIMIZATION CONVERGED  **

                    Orbital Energies (a.u.)
 --------------------------------------------------------------

 Alpha MOs
 -- Occupied --
-14.321 -10.227 -10.224 -10.209 -10.202 -10.201 -10.196  -0.943
 -0.790  -0.765  -0.704  -0.595  -0.556  -0.537  -0.507  -0.469
 -0.446  -0.405  -0.398  -0.370  -0.326  -0.274  -0.265  -0.254
 -0.234

 Beta MOs
 -- Occupied --
-14.321 -10.226 -10.224 -10.204 -10.201 -10.196 -10.193  -0.943
 -0.782  -0.764  -0.692  -0.587  -0.555  -0.529  -0.504  -0.458
 -0.441  -0.403  -0.397  -0.365  -0.324  -0.268  -0.261  -0.252

          Ground-State Mulliken Net Atomic Charges

     Atom                 Charge (a.u.)    Spin (a.u.)
  --------------------------------------------------------
      1 C                    -0.069569       0.042939
      2 C                    -0.103328      -0.167466
      3 C                    -0.198379       1.040338
      4 C                    -0.142480       0.000340
      5 C                     0.055913       0.004787
      6 N                    -0.377436      -0.003523
      7 H                     0.180887      -0.004335
      8 H                     0.163992       0.078644
      9 H                     0.163968       0.004907
     10 H                     0.140236       0.000135
     11 H                     0.143439      -0.000142
     12 C                    -0.110418       0.002891
     13 H                     0.153175       0.000483
  --------------------------------------------------------
  Sum of atomic charges =    -0.000000

                    Cartesian Multipole Moments
 -----------------------------------------------------------------
    Charge (ESU x 10^10)
                 0.0000
    Dipole Moment (Debye)
         X      -0.9046      Y      -0.5406      Z       1.0938
       Tot       1.5189
    Quadrupole Moments (Debye-Ang)
        XX     -39.5788     XY      -4.1797     YY     -37.0878
        XZ       0.2058     YZ       1.6450     ZZ     -41.0572

 Total job time:  33.17s(wall), 51.49s(cpu)
        *  Thank you very much for using Q-Chem.  Have a nice day.  *
