 Q-Chem 5.0, Q-Chem, Inc., Pleasanton, CA (2017)
 Q-Chem 5.0.2 for Intel X86 EM64T Linux

User input:
--------------------------------------------------------------
$molecule
0 2
C        1.4342707657    0.0514153271   -0.4686602423
C        0.5719556226   -1.0974315518   -0.9411172544
C       -0.9173722366   -0.6642418631   -1.7500813442
C       -1.3325798520   -0.1086170836   -0.3889801139
C       -0.7668540045    0.7324646989   -1.3198940192
N        0.8077918350    1.1687305673   -1.3321231084
H        2.5340868054    0.1969754973   -0.2193066086
H        0.5623473004   -2.1489045018   -1.0326889088
H       -1.1336871950   -0.2710284526   -2.7467593245
H       -2.3897370463    0.0087272479   -0.1775843007
H       -1.1837857294    1.6251432375   -1.6715779338
C        0.1592163481   -0.2251599100    0.2470897088
H        0.2262067670   -0.6463982960    1.3473577721
$end

$rem
method                b3lyp
basis                 6-31g(d)
unrestricted          true
symmetry              off
sym_ignore            true
incdft                false
incfock               0
scf_convergence       8
thresh                14
jobtype               opt
scf_guess             read
scf_algorithm         diis
max_scf_cycles        100
geom_opt_tol_gradient 600
geom_opt_tol_displacement 2400
geom_opt_tol_energy   200
geom_opt_max_cycles   100
$end

--------------------------------------------------------------

    2    -286.6031855838      1.71E-09 Convergence criterion met
 Total energy in the final basis set = -286.60318558
   15    -286.6482004836      6.71E-09 Convergence criterion met
 Total energy in the final basis set = -286.64820048
   15    -286.6862075464      7.21E-09 Convergence criterion met
 Total energy in the final basis set = -286.68620755
   14    -286.7168793349      9.23E-09 Convergence criterion met
 Total energy in the final basis set = -286.71687933
   14    -286.7411627456      9.64E-09 Convergence criterion met
 Total energy in the final basis set = -286.74116275
   14    -286.7601188850      4.45E-09 Convergence criterion met
 Total energy in the final basis set = -286.76011889
   14    -286.7748573453      4.07E-09 Convergence criterion met
 Total energy in the final basis set = -286.77485735
   14    -286.7862627147      4.42E-09 Convergence criterion met
   13    -286.8235590170      7.67E-09 Convergence criterion met
 Total energy in the final basis set = -286.82355902
   13    -286.8246008812      5.37E-09 Convergence criterion met
 Total energy in the final basis set = -286.82460088
   13    -286.8249003977      4.19E-09 Convergence criterion met
 Total energy in the final basis set = -286.82490040
   11    -286.8249511862      6.11E-09 Convergence criterion met
 Total energy in the final basis set = -286.82495119
   11    -286.8249791841      8.63E-09 Convergence criterion met
 Total energy in the final basis set = -286.82497918
   11    -286.8249692976      5.44E-09 Convergence criterion met
 Total energy in the final basis set = -286.82496930

             Standard Nuclear Orientation (Angstroms)
    I     Atom           X                Y                Z
 ----------------------------------------------------------------
    1      C       1.1962296817     0.1439159583    -0.4845599492
    2      C       0.4794704512    -1.1102406689    -1.0237927501
    3      C      -0.7700137366    -0.4987261422    -1.7061531501
    4      C      -1.2023184270     0.0867886625    -0.3906752927
    5      C      -0.5699791897     1.0088108657    -1.4498978525
    6      N       0.7754456554     1.3201017502    -1.1466578812
    7      H       2.2166669254     0.0818726586    -0.1226634165
    8      H       0.9808056226    -2.0438422219    -1.2531054326
    9      H      -1.3542684562    -0.9047075835    -2.5243180939
   10      H      -2.1923174663     0.2303908383     0.0275429958
   11      H      -1.1730382830     1.7420489974    -1.9738853315
   12      C       0.0468369295    -0.5252612190     0.2920213217
   13      H       0.1383396734    -0.9094769784     1.3018191550
 ----------------------------------------------------------------

   11    -286.8249833491      4.59E-09 Convergence criterion met
 Total energy in the final basis set = -286.82498335
 Final energy is   -286.824983349075
 **  OPTIMIZATION CONVERGED  **

                    Orbital Energies (a.u.)
 --------------------------------------------------------------

 Alpha MOs
 -- Occupied --
-14.335 -10.215 -10.215 -10.207 -10.207 -10.207 -10.206  -0.986
 -0.836  -0.793  -0.649  -0.588  -0.574  -0.542  -0.533  -0.455
 -0.427  -0.415  -0.395  -0.384  -0.337  -0.275  -0.274  -0.248
 -0.212

 Beta MOs
 -- Occupied --
-14.319 -10.217 -10.216 -10.205 -10.205 -10.205 -10.205  -0.976
 -0.811  -0.789  -0.644  -0.585  -0.568  -0.537  -0.529  -0.453
 -0.423  -0.392  -0.389  -0.378  -0.322  -0.269  -0.257  -0.244

          Ground-State Mulliken Net Atomic Charges

     Atom                 Charge (a.u.)    Spin (a.u.)
  --------------------------------------------------------
      1 C                    -0.044925      -0.080303
      2 C                    -0.125077       0.089819
      3 C                    -0.124811       0.089879
      4 C                    -0.125014       0.088563
      5 C                    -0.044630      -0.080326
      6 N                    -0.285879       0.811410
      7 H                     0.149319       0.001045
      8 H                     0.144036      -0.002529
      9 H                     0.144066      -0.002522
     10 H                     0.143996      -0.002444
     11 H                     0.149297       0.001048
     12 C                    -0.124286       0.088823
     13 H                     0.143909      -0.002463
  --------------------------------------------------------
  Sum of atomic charges =    -0.000000

                    Cartesian Multipole Moments
 -----------------------------------------------------------------
    Charge (ESU x 10^10)
                -0.0000
    Dipole Moment (Debye)
         X      -1.2009      Y      -1.9317      Z       0.4673
       Tot       2.3220
    Quadrupole Moments (Debye-Ang)
        XX     -38.1288     XY      -3.8228     YY     -42.8880
        XZ       3.1279     YZ       1.8270     ZZ     -39.6770

 Total job time:  835.85s(wall), 990.60s(cpu)
        *  Thank you very much for using Q-Chem.  Have a nice day.  *
