 Q-Chem 5.0, Q-Chem, Inc., Pleasanton, CA (2017)
 Q-Chem 5.0.2 for Intel X86 EM64T Linux

User input:
--------------------------------------------------------------
$molecule
0 2
C        1.5231702074    0.3848421666   -0.2302202023
C        0.6818835944   -0.8596597199    0.0261073198
C       -0.6337825769   -0.5169814233   -0.7614113212
C       -1.1586708176    0.1354232450    0.5318720210
C       -0.5312376610    0.9630244680   -0.6810279451
N        0.8338895800    1.4116429241   -0.5732787156
H        2.5884165223    0.4562144810   -0.0161994091
H        1.1712917610   -1.8319383794   -0.0634436707
H       -1.1574084067   -1.1243740932   -1.4936532733
H       -2.1730857514    0.3727486115    0.8369039720
H       -1.2330231675    1.6128152464   -1.1936439812
C       -0.1138591228   -0.5385726553    1.2900726753
H        0.2024158383   -0.4651848709    2.3279225299
$end

$rem
method                b3lyp
basis                 6-31g(d)
unrestricted          true
symmetry              off
sym_ignore            true
incdft                false
incfock               0
scf_convergence       8
thresh                14
jobtype               opt
scf_guess             read
scf_algorithm         diis
max_scf_cycles        100
geom_opt_tol_gradient 600
geom_opt_tol_displacement 2400
geom_opt_tol_energy   200
geom_opt_max_cycles   100
$end

--------------------------------------------------------------

    2    -286.8383800305      2.14E-09 Convergence criterion met
 Total energy in the final basis set = -286.83838003

             Standard Nuclear Orientation (Angstroms)
    I     Atom           X                Y                Z
 ----------------------------------------------------------------
    1      C       1.5231813315     0.3852152257    -0.2296861039
    2      C       0.6819031026    -0.8596349295     0.0256880034
    3      C      -0.6341518892    -0.5172270635    -0.7613613027
    4      C      -1.1582783833     0.1357296786     0.5318490721
    5      C      -0.5311858256     0.9629470450    -0.6815021703
    6      N       0.8340653416     1.4117273812    -0.5736762239
    7      H       2.5881664172     0.4569012210    -0.0144192214
    8      H       1.1711694095    -1.8319473179    -0.0642672372
    9      H      -1.1583348199    -1.1247595888    -1.4929784625
   10      H      -2.1724186044     0.3734361882     0.8374336868
   11      H      -1.2330612073     1.6124656835    -1.1945277876
   12      C      -0.1138090068    -0.5393904502     1.2898503135
   13      H       0.2027541337    -0.4654630727     2.3275974330
 ----------------------------------------------------------------

    9    -286.8383803540      5.43E-09 Convergence criterion met
 Total energy in the final basis set = -286.83838035
 Final energy is   -286.838380354023
 **  OPTIMIZATION CONVERGED  **

                    Orbital Energies (a.u.)
 --------------------------------------------------------------

 Alpha MOs
 -- Occupied --
-14.320 -10.224 -10.220 -10.210 -10.209 -10.208 -10.206  -0.968
 -0.856  -0.749  -0.664  -0.606  -0.571  -0.535  -0.517  -0.467
 -0.439  -0.405  -0.400  -0.356  -0.336  -0.298  -0.274  -0.256
 -0.182

 Beta MOs
 -- Occupied --
-14.319 -10.222 -10.219 -10.211 -10.209 -10.207 -10.193  -0.964
 -0.850  -0.741  -0.652  -0.601  -0.567  -0.528  -0.511  -0.461
 -0.434  -0.402  -0.393  -0.348  -0.332  -0.292  -0.262  -0.251

          Ground-State Mulliken Net Atomic Charges

     Atom                 Charge (a.u.)    Spin (a.u.)
  --------------------------------------------------------
      1 C                     0.088787       0.047419
      2 C                    -0.258720      -0.065722
      3 C                    -0.107866       0.077983
      4 C                    -0.164000      -0.096001
      5 C                    -0.018854       0.097224
      6 N                    -0.342227       0.038881
      7 H                     0.143018       0.001352
      8 H                     0.142872       0.022665
      9 H                     0.148117      -0.000759
     10 H                     0.147272       0.005275
     11 H                     0.151363       0.002848
     12 C                    -0.066011       0.888106
     13 H                     0.136248      -0.019273
  --------------------------------------------------------
  Sum of atomic charges =    -0.000000

                    Cartesian Multipole Moments
 -----------------------------------------------------------------
    Charge (ESU x 10^10)
                 0.0000
    Dipole Moment (Debye)
         X      -0.7655      Y      -1.8810      Z       0.2798
       Tot       2.0500
    Quadrupole Moments (Debye-Ang)
        XX     -36.9485     XY      -3.7295     YY     -44.4434
        XZ       2.1619     YZ       1.5778     ZZ     -39.9281

 Total job time:  56.61s(wall), 48.02s(cpu)
        *  Thank you very much for using Q-Chem.  Have a nice day.  *
