 Q-Chem 5.0, Q-Chem, Inc., Pleasanton, CA (2017)
 Q-Chem 5.0.2 for Intel X86 EM64T Linux

User input:
--------------------------------------------------------------
$molecule
0 2
C        1.5089999017    0.4265388136   -0.6385465306
C        1.1661481694   -0.9054052979   -0.4841878083
C       -0.0591463483   -1.4574693570    0.0364358326
C       -1.2942509345    0.6694885230    0.5388933894
C       -0.3879202862    1.6412321155    0.1510362800
N        0.8598316575    1.5860838881   -0.3734139938
H        2.5010633841    0.6002712956   -1.0583315946
H        1.9214356958   -1.6216910074   -0.7975018917
H       -0.1149451273   -2.5431668914    0.0689744672
H       -2.2367519198    1.0406280446    0.9332835615
H       -0.7291471445    2.6686044622    0.2879802403
C       -1.1444055750   -0.7627865845    0.4870537577
H       -1.9909114729   -1.3423280045    0.8483242903
$end

$rem
method                b3lyp
basis                 6-31+g(d,p)
unrestricted          true
symmetry              off
sym_ignore            true
incdft                false
incfock               0
scf_convergence       8
thresh                14
jobtype               sp
scf_guess             core
scf_guess_mix         5
scf_algorithm         diis
max_scf_cycles        100
$end

--------------------------------------------------------------

             Standard Nuclear Orientation (Angstroms)
    I     Atom           X                Y                Z
 ----------------------------------------------------------------
    1      C       1.5089999017     0.4265388136    -0.6385465306
    2      C       1.1661481694    -0.9054052979    -0.4841878083
    3      C      -0.0591463483    -1.4574693570     0.0364358326
    4      C      -1.2942509345     0.6694885230     0.5388933894
    5      C      -0.3879202862     1.6412321155     0.1510362800
    6      N       0.8598316575     1.5860838881    -0.3734139938
    7      H       2.5010633841     0.6002712956    -1.0583315946
    8      H       1.9214356958    -1.6216910074    -0.7975018917
    9      H      -0.1149451273    -2.5431668914     0.0689744672
   10      H      -2.2367519198     1.0406280446     0.9332835615
   11      H      -0.7291471445     2.6686044622     0.2879802403
   12      C      -1.1444055750    -0.7627865845     0.4870537577
   13      H      -1.9909114729    -1.3423280045     0.8483242903
 ----------------------------------------------------------------

   23    -286.9462000942      1.50E-09 Convergence criterion met
 Total energy in the final basis set = -286.94620009

                    Orbital Energies (a.u.)
 --------------------------------------------------------------

 Alpha MOs
 -- Occupied --
-14.337 -10.243 -10.243 -10.223 -10.222 -10.212 -10.212  -0.934
 -0.829  -0.795  -0.703  -0.678  -0.562  -0.547  -0.527  -0.458
 -0.449  -0.423  -0.405  -0.395  -0.358  -0.333  -0.310  -0.263
 -0.174

 Beta MOs
 -- Occupied --
-14.329 -10.245 -10.245 -10.222 -10.221 -10.208 -10.208  -0.923
 -0.820  -0.788  -0.692  -0.676  -0.557  -0.544  -0.524  -0.456
 -0.448  -0.420  -0.392  -0.384  -0.357  -0.307  -0.287  -0.254

          Ground-State Mulliken Net Atomic Charges

     Atom                 Charge (a.u.)    Spin (a.u.)
  --------------------------------------------------------
      1 C                    -0.234933      -0.113953
      2 C                     0.100871       0.369424
      3 C                    -0.165064       0.079695
      4 C                     0.100976       0.371335
      5 C                    -0.234794      -0.115016
      6 N                    -0.176313       0.375443
      7 H                     0.126981       0.003270
      8 H                     0.127399      -0.018638
      9 H                     0.132715      -0.006806
     10 H                     0.127349      -0.018717
     11 H                     0.126981       0.003319
     12 C                    -0.164911       0.077346
     13 H                     0.132743      -0.006703
  --------------------------------------------------------
  Sum of atomic charges =     0.000000

                    Cartesian Multipole Moments
 -----------------------------------------------------------------
    Charge (ESU x 10^10)
                 0.0000
    Dipole Moment (Debye)
         X      -1.1210      Y      -2.0687      Z       0.4875
       Tot       2.4028
    Quadrupole Moments (Debye-Ang)
        XX     -38.5610     XY      -3.6352     YY     -41.7387
        XZ      -2.7551     YZ       1.5027     ZZ     -44.0067

 Total job time:  29.43s(wall), 110.80s(cpu)
        *  Thank you very much for using Q-Chem.  Have a nice day.  *
