 Q-Chem 5.0, Q-Chem, Inc., Pleasanton, CA (2017)
 Q-Chem 5.0.2 for Intel X86 EM64T Linux

User input:
--------------------------------------------------------------
$molecule
0 2
C        1.6858641679    0.4814235335   -0.3113819283
C        1.1527232392   -0.8125245468   -0.4412693886
C       -0.3355325121   -0.7012813414   -0.4721446490
C       -1.2307385698    0.6018136913    0.9484160797
C       -0.5205371053    0.8655087543   -0.3794389028
N        0.8007712646    1.4737891279   -0.2652936708
H        2.7466490521    0.7061859717   -0.2237539064
H        1.7287599644   -1.7298503689   -0.4908812888
H       -0.8233959338   -1.2458214738   -1.2903701817
H       -1.6636349769    1.2797951207    1.6767668089
H       -1.1132461643    1.3616759339   -1.1569535299
C       -1.0767405604   -0.7273199034    0.8780899213
H       -1.3509418657   -1.5533944985    1.5282146367
$end

$rem
method                b3lyp
basis                 6-31+g(d,p)
unrestricted          true
symmetry              off
sym_ignore            true
incdft                false
incfock               0
scf_convergence       8
thresh                14
jobtype               sp
scf_guess             read
scf_algorithm         diis
max_scf_cycles        100
scf_final_print       1
$end

--------------------------------------------------------------

             Standard Nuclear Orientation (Angstroms)
    I     Atom           X                Y                Z
 ----------------------------------------------------------------
    1      C       1.6858641679     0.4814235335    -0.3113819283
    2      C       1.1527232392    -0.8125245468    -0.4412693886
    3      C      -0.3355325121    -0.7012813414    -0.4721446490
    4      C      -1.2307385698     0.6018136913     0.9484160797
    5      C      -0.5205371053     0.8655087543    -0.3794389028
    6      N       0.8007712646     1.4737891279    -0.2652936708
    7      H       2.7466490521     0.7061859717    -0.2237539064
    8      H       1.7287599644    -1.7298503689    -0.4908812888
    9      H      -0.8233959338    -1.2458214738    -1.2903701817
   10      H      -1.6636349769     1.2797951207     1.6767668089
   11      H      -1.1132461643     1.3616759339    -1.1569535299
   12      C      -1.0767405604    -0.7273199034     0.8780899213
   13      H      -1.3509418657    -1.5533944985     1.5282146367
 ----------------------------------------------------------------

    2    -286.8969965757      2.70E-09 Convergence criterion met
 Total energy in the final basis set = -286.89699658

                    Orbital Energies (a.u.)
 --------------------------------------------------------------

 Alpha MOs
 -- Occupied --
-14.343 -10.228 -10.228 -10.219 -10.213 -10.211 -10.206  -0.956
 -0.848  -0.763  -0.675  -0.627  -0.563  -0.531  -0.524  -0.490
 -0.438  -0.412  -0.396  -0.364  -0.351  -0.332  -0.282  -0.264
 -0.214

 Beta MOs
 -- Occupied --
-14.333 -10.230 -10.228 -10.213 -10.210 -10.210 -10.205  -0.944
 -0.842  -0.745  -0.675  -0.619  -0.558  -0.528  -0.520  -0.483
 -0.430  -0.406  -0.391  -0.353  -0.344  -0.311  -0.275  -0.258

          Ground-State Mulliken Net Atomic Charges

     Atom                 Charge (a.u.)    Spin (a.u.)
  --------------------------------------------------------
      1 C                    -0.111427      -0.255255
      2 C                    -0.068137       0.756324
      3 C                    -0.017688      -0.072947
      4 C                    -0.076271       0.047513
      5 C                    -0.213049      -0.061308
      6 N                    -0.176545       0.518663
      7 H                     0.130700       0.007390
      8 H                     0.136052      -0.032434
      9 H                     0.146497       0.027307
     10 H                     0.130951       0.003165
     11 H                     0.148292       0.028985
     12 C                    -0.157192       0.025868
     13 H                     0.127818       0.006728
  --------------------------------------------------------
  Sum of atomic charges =    -0.000000

                    Cartesian Multipole Moments
 -----------------------------------------------------------------
    Charge (ESU x 10^10)
                -0.0000
    Dipole Moment (Debye)
         X      -0.5133      Y      -2.2857      Z      -0.0989
       Tot       2.3447
    Quadrupole Moments (Debye-Ang)
        XX     -39.0186     XY      -3.1135     YY     -44.1766
        XZ      -0.6049     YZ       0.5223     ZZ     -41.1479

 Total job time:  3.57s(wall), 11.71s(cpu)
        *  Thank you very much for using Q-Chem.  Have a nice day.  *
