 Q-Chem 5.0, Q-Chem, Inc., Pleasanton, CA (2017)
 Q-Chem 5.0.2 for Intel X86 EM64T Linux

User input:
--------------------------------------------------------------
$molecule
0 2
C        1.6785864182    0.4827726302   -0.3246534839
C        1.1470526304   -0.8117478288   -0.4362582285
C       -0.3417421016   -0.7024097273   -0.4751423931
C       -1.2151257383    0.6015569718    0.9530051010
C       -0.5222166042    0.8645629765   -0.3843347831
N        0.7982617362    1.4778695758   -0.2908445024
H        2.7411767710    0.7071933806   -0.2421505935
H        1.7212204975   -1.7317821702   -0.4461674774
H       -0.8256238594   -1.2467755293   -1.2966771244
H       -1.6246018247    1.2817247554    1.6937878483
H       -1.1307315785    1.3567924101   -1.1528759836
C       -1.0761477772   -0.7264332602    0.8761026354
H       -1.3501085697   -1.5533241849    1.5262089856
****
C        1.5039242055    0.4253792097   -0.6441996928
C        1.1647526050   -0.9057043706   -0.4841773303
C       -0.0582998158   -1.4554082750    0.0419821970
C       -1.2913909421    0.6712706847    0.5410666636
C       -0.3880609985    1.6389254324    0.1454118276
N        0.8577840515    1.5848353231   -0.3834974780
H        2.4959217614    0.5968924178   -1.0682287450
H        1.9190059538   -1.6238893019   -0.7967854381
H       -0.1127561260   -2.5416599404    0.0776065574
H       -2.2332918587    1.0421679065    0.9381933643
H       -0.7300364949    2.6675445331    0.2793289133
C       -1.1407549952   -0.7611445694    0.4935864038
H       -1.9867973460   -1.3392090501    0.8597127571
$end

$rem
method                b3lyp
basis                 6-31g(d)
unrestricted          true
symmetry              off
sym_ignore            true
incdft                false
incfock               0
scf_convergence       8
thresh                14
jobtype               fsm
scf_guess             core
scf_guess_mix         5
scf_algorithm         diis
max_scf_cycles        100
fsm_nnode             21
fsm_ngrad             6
fsm_mode              2
fsm_opt_mode          2
$end

--------------------------------------------------------------

   22    -286.8754845636      8.43E-09 Convergence criterion met
 Total energy in the final basis set = -286.87548456
   23    -286.9243420165      3.41E-09 Convergence criterion met
 Total energy in the final basis set = -286.92434202
   22    -286.8721347665      9.68E-09 Convergence criterion met
 Total energy in the final basis set = -286.87213477
   22    -286.8732220534      6.92E-09 Convergence criterion met
 Total energy in the final basis set = -286.87322205
   23    -286.9234068150      6.29E-09 Convergence criterion met
 Total energy in the final basis set = -286.92340681
   21    -286.9212138331      6.23E-09 Convergence criterion met
 Total energy in the final basis set = -286.92121383
   23    -286.9229254765      6.03E-09 Convergence criterion met
 Total energy in the final basis set = -286.92292548
   22    -286.8672427327      9.86E-09 Convergence criterion met
 Total energy in the final basis set = -286.82566422
   24    -286.8255784145      9.20E-09 Convergence criterion met
 Total energy in the final basis set = -286.82557841
   24    -286.8257455124      9.11E-09 Convergence criterion met
 Total energy in the final basis set = -286.82574551
   24    -286.8255017276      9.23E-09 Convergence criterion met
 Total energy in the final basis set = -286.82550173
   24    -286.8258325364      9.08E-09 Convergence criterion met
 Total energy in the final basis set = -286.82583254
   24    -286.8254196734      9.25E-09 Convergence criterion met
 Total energy in the final basis set = -286.82541967
   24    -286.8258964542      9.02E-09 Convergence criterion met
 Total energy in the final basis set = -286.82589645
   24    -286.8253592816      9.28E-09 Convergence criterion met
 Total energy in the final basis set = -286.82535928

                    Orbital Energies (a.u.)
 --------------------------------------------------------------

 Alpha MOs
 -- Occupied --
-14.342 -10.243 -10.225 -10.203 -10.200 -10.197 -10.190  -0.946
 -0.815  -0.765  -0.670  -0.638  -0.538  -0.531  -0.518  -0.463
 -0.438  -0.418  -0.399  -0.369  -0.344  -0.299  -0.282  -0.217
 -0.191

 Beta MOs
 -- Occupied --
-14.335 -10.238 -10.226 -10.200 -10.200 -10.194 -10.191  -0.932
 -0.810  -0.754  -0.665  -0.631  -0.533  -0.526  -0.512  -0.458
 -0.430  -0.409  -0.395  -0.359  -0.330  -0.282  -0.271  -0.207

          Ground-State Mulliken Net Atomic Charges

     Atom                 Charge (a.u.)    Spin (a.u.)
  --------------------------------------------------------
      1 C                     0.058452      -0.052061
      2 C                    -0.118792       0.446907
      3 C                    -0.224550      -0.176583
      4 C                    -0.090365      -0.048842
      5 C                    -0.051856       0.349150
      6 N                    -0.328417       0.344672
      7 H                     0.144334       0.001311
      8 H                     0.140706      -0.026542
      9 H                     0.130301       0.024569
     10 H                     0.140600       0.003807
     11 H                     0.150340       0.016970
     12 C                    -0.094235       0.100843
     13 H                     0.143482       0.015798
  --------------------------------------------------------
  Sum of atomic charges =     0.000000

                    Cartesian Multipole Moments
 -----------------------------------------------------------------
    Charge (ESU x 10^10)
                -0.0000
    Dipole Moment (Debye)
         X      -0.5297      Y      -1.2435      Z       0.1370
       Tot       1.3585
    Quadrupole Moments (Debye-Ang)
        XX     -36.7007     XY      -2.5150     YY     -40.4295
        XZ      -2.1545     YZ       0.0582     ZZ     -41.5269

             Standard Nuclear Orientation (Angstroms)
    I     Atom           X                Y                Z
 ----------------------------------------------------------------
    1      C       1.6819772115     0.4842555239    -0.3492597867
    2      C       1.1589924081    -0.8435413589    -0.4744597036
    3      C      -0.2581162249    -0.9762137347    -0.3994887033
    4      C      -1.2440230062     0.6376212360     0.9389887612
    5      C      -0.4947819096     1.1335871218    -0.2784319554
    6      N       0.8393204173     1.4699189932    -0.2182422282
    7      H       2.7476928875     0.6819545187    -0.4435667168
    8      H       1.8223227758    -1.6642807607    -0.6995976802
    9      H      -0.6473071056    -1.8120127607    -0.9795014283
   10      H      -1.8689381432     1.2308315474     1.5928963370
   11      H      -1.0797785699     1.7798284578    -0.9512383141
   12      C      -1.1147472970    -0.6765902214     0.8295417137
   13      H      -1.6027831594    -1.4634024367     1.3998291467
 ----------------------------------------------------------------

 Total job time:  1138.47s(wall), 4310.46s(cpu)
        *  Thank you very much for using Q-Chem.  Have a nice day.  *
