 Q-Chem 5.0, Q-Chem, Inc., Pleasanton, CA (2017)
 Q-Chem 5.0.2 for Intel X86 EM64T Linux

User input:
--------------------------------------------------------------
$molecule
0 2
C        1.6371303157    0.4901384190   -0.2366974928
C        1.1167667278   -0.8115021939   -0.4881355414
C       -0.3006460809   -0.9695799080   -0.4173720214
C       -1.2176248587    0.6641266033    0.9141448228
C       -0.5242449040    1.0955368247   -0.3375074837
N        0.7876543044    1.4929737220   -0.1936104735
H        2.7002376086    0.6927100928   -0.1258264171
H        1.7601722093   -1.5887371066   -0.8932311067
H       -0.7040598482   -1.7645226055   -1.0533908114
H       -1.5999052319    1.2934520742    1.7121743897
H       -1.0869163905    1.4847064833   -1.1892032907
C       -1.1137027296   -0.6631252181    0.8082762610
H       -1.5150308378   -1.4342210615    1.4678486073
$end

$rem
method                b3lyp
basis                 6-31+g(d,p)
unrestricted          true
symmetry              off
sym_ignore            true
incdft                false
incfock               0
scf_convergence       8
thresh                14
jobtype               rpath
scf_guess             core
scf_guess_mix         5
scf_algorithm         diis
max_scf_cycles        100
rpath_direction       1
rpath_tol_displacement 1000
rpath_max_cycles      50
geom_opt_max_cycles   300
geom_opt_hessian      read
$end

--------------------------------------------------------------

   23    -286.8682620942      4.62E-09 Convergence criterion met
 Total energy in the final basis set = -286.86826209
   23    -286.8693485727      4.38E-09 Convergence criterion met
 Total energy in the final basis set = -286.86934857
   23    -286.8692960615      7.88E-09 Convergence criterion met
 Total energy in the final basis set = -286.86929606
   23    -286.8693497074      4.72E-09 Convergence criterion met
 Total energy in the final basis set = -286.86934971
   23    -286.8721753792      4.08E-09 Convergence criterion met
 Total energy in the final basis set = -286.87217538
   23    -286.8721194595      3.05E-09 Convergence criterion met
 Total energy in the final basis set = -286.87211946
   23    -286.8721766391      4.09E-09 Convergence criterion met
 Total energy in the final basis set = -286.87217664
   23    -286.8759221638      5.96E-09 Convergence criterion met
 Total energy in the final basis set = -286.89166450
   22    -286.8969911658      7.01E-09 Convergence criterion met
 Total energy in the final basis set = -286.89699117
   22    -286.8969907015      6.88E-09 Convergence criterion met
 Total energy in the final basis set = -286.89699070
   22    -286.8969919396      6.95E-09 Convergence criterion met
 Total energy in the final basis set = -286.89699194
   22    -286.8953618060      5.02E-09 Convergence criterion met
 Total energy in the final basis set = -286.89536181
   22    -286.8969954982      6.80E-09 Convergence criterion met
 Total energy in the final basis set = -286.89699550
   22    -286.8969912508      7.12E-09 Convergence criterion met
 Total energy in the final basis set = -286.89699125
   22    -286.8969965754      6.92E-09 Convergence criterion met
 Total energy in the final basis set = -286.89699658

                    Orbital Energies (a.u.)
 --------------------------------------------------------------

 Alpha MOs
 -- Occupied --
-14.343 -10.228 -10.228 -10.219 -10.213 -10.211 -10.206  -0.956
 -0.848  -0.763  -0.675  -0.627  -0.563  -0.531  -0.524  -0.490
 -0.438  -0.412  -0.396  -0.364  -0.351  -0.332  -0.282  -0.264
 -0.214

 Beta MOs
 -- Occupied --
-14.333 -10.230 -10.228 -10.213 -10.210 -10.210 -10.205  -0.944
 -0.842  -0.745  -0.675  -0.619  -0.558  -0.528  -0.520  -0.483
 -0.430  -0.406  -0.391  -0.353  -0.344  -0.311  -0.275  -0.258

          Ground-State Mulliken Net Atomic Charges

     Atom                 Charge (a.u.)    Spin (a.u.)
  --------------------------------------------------------
      1 C                    -0.111427      -0.255256
      2 C                    -0.068137       0.756323
      3 C                    -0.017688      -0.072939
      4 C                    -0.076271       0.047556
      5 C                    -0.213049      -0.061316
      6 N                    -0.176545       0.518665
      7 H                     0.130700       0.007390
      8 H                     0.136052      -0.032434
      9 H                     0.146497       0.027305
     10 H                     0.130951       0.003163
     11 H                     0.148292       0.028986
     12 C                    -0.157192       0.025825
     13 H                     0.127818       0.006730
  --------------------------------------------------------
  Sum of atomic charges =     0.000000

                    Cartesian Multipole Moments
 -----------------------------------------------------------------
    Charge (ESU x 10^10)
                 0.0000
    Dipole Moment (Debye)
         X      -0.5133      Y      -2.2857      Z      -0.0989
       Tot       2.3447
    Quadrupole Moments (Debye-Ang)
        XX     -39.0138     XY      -3.1023     YY     -44.1702
        XZ      -0.6032     YZ       0.5282     ZZ     -41.1474

             Standard Nuclear Orientation (Angstroms)
    I     Atom           X                Y                Z
 ----------------------------------------------------------------
    1      C       1.6371303157     0.4901384190    -0.2366974928
    2      C       1.1167667278    -0.8115021939    -0.4881355414
    3      C      -0.3006460809    -0.9695799080    -0.4173720214
    4      C      -1.2176248587     0.6641266033     0.9141448228
    5      C      -0.5242449040     1.0955368247    -0.3375074837
    6      N       0.7876543044     1.4929737220    -0.1936104735
    7      H       2.7002376086     0.6927100928    -0.1258264171
    8      H       1.7601722093    -1.5887371066    -0.8932311067
    9      H      -0.7040598482    -1.7645226055    -1.0533908114
   10      H      -1.5999052319     1.2934520742     1.7121743897
   11      H      -1.0869163905     1.4847064833    -1.1892032907
   12      C      -1.1137027296    -0.6631252181     0.8082762610
   13      H      -1.5150308378    -1.4342210615     1.4678486073
 ----------------------------------------------------------------

 Total job time:  8398.25s(wall), 32644.16s(cpu)
        *  Thank you very much for using Q-Chem.  Have a nice day.  *
