 Q-Chem 5.0, Q-Chem, Inc., Pleasanton, CA (2017)
 Q-Chem 5.0.2 for Intel X86 EM64T Linux

User input:
--------------------------------------------------------------
$molecule
0 2
C        1.5556105413    0.4058003933   -0.4601228858
C        1.1429274140   -0.9071986603   -0.5202895847
C       -0.1404505154   -1.4158598114   -0.1820314224
C       -1.1861038378    0.6637280561    0.7472289298
C       -0.4568447181    1.6130230198   -0.0760800768
N        0.7382517317    1.5239404314   -0.5574954589
H        2.6157568287    0.6341160365   -0.5243654476
H        1.8950832486   -1.6407314418   -0.8124171602
H       -0.3235403859   -2.4704423188   -0.3593361154
H       -1.9702704775    1.0660577176    1.3830628927
H       -0.9961403271    2.5270153423   -0.3499365462
C       -1.0928255244   -0.7070267665    0.5809602911
H       -1.8416236920   -1.3104658673    1.0982920304
$end

$rem
method                b3lyp
basis                 6-31+g(d,p)
unrestricted          true
symmetry              off
sym_ignore            true
incdft                false
incfock               0
scf_convergence       8
thresh                14
jobtype               opt
scf_guess             read
scf_algorithm         diis
max_scf_cycles        100
geom_opt_max_cycles   300
$end

--------------------------------------------------------------

   20    -286.9379999302      4.63E-09 Convergence criterion met
 Total energy in the final basis set = -286.93799993
   15    -286.9402558836      9.12E-09 Convergence criterion met
 Total energy in the final basis set = -286.94025588
   16    -286.9418915170      5.61E-09 Convergence criterion met
 Total energy in the final basis set = -286.94189152
   16    -286.9431636208      8.24E-09 Convergence criterion met
 Total energy in the final basis set = -286.94316362
   17    -286.9442014417      4.24E-09 Convergence criterion met
 Total energy in the final basis set = -286.94420144
   16    -286.9450102215      8.53E-09 Convergence criterion met
 Total energy in the final basis set = -286.94501022
   16    -286.9455880970      7.67E-09 Convergence criterion met
 Total energy in the final basis set = -286.94558810
   16    -286.9459638548      3.04E-09 Convergence criterion met
 Total energy in the final basis set = -286.94596385
   15    -286.9461472767      5.80E-09 Convergence criterion met
 Total energy in the final basis set = -286.94614728
   14    -286.9461830181      8.39E-09 Convergence criterion met
 Total energy in the final basis set = -286.94618302
   13    -286.9461947349      6.21E-09 Convergence criterion met
 Total energy in the final basis set = -286.94619473
   12    -286.9461976828      7.23E-09 Convergence criterion met
 Total energy in the final basis set = -286.94619768
   13    -286.9461989927      3.38E-09 Convergence criterion met
 Total energy in the final basis set = -286.94619899

             Standard Nuclear Orientation (Angstroms)
    I     Atom           X                Y                Z
 ----------------------------------------------------------------
    1      C       1.4986974884     0.4211192507    -0.6570931392
    2      C       1.1610283728    -0.9096476681    -0.4823442612
    3      C      -0.0592822948    -1.4584041808     0.0532415390
    4      C      -1.2971701956     0.6714102570     0.5364571398
    5      C      -0.3965189579     1.6405700456     0.1296280414
    6      N       0.8477893896     1.5820598955    -0.4030163686
    7      H       2.4876616412     0.5922418854    -1.0851570126
    8      H       1.9164500259    -1.6279502053    -0.7907505035
    9      H      -0.1115683321    -2.5437558492     0.1000316926
   10      H      -2.2380666221     1.0448296315     0.9325413779
   11      H      -0.7396705961     2.6687122025     0.2553069036
   12      C      -1.1435041672    -0.7610672668     0.5021666820
   13      H      -1.9860154661    -1.3381618670     0.8764573546
 ----------------------------------------------------------------

   10    -286.9461991500      8.56E-09 Convergence criterion met
 Total energy in the final basis set = -286.94619915
 Final energy is   -286.946199149968
 **  OPTIMIZATION CONVERGED  **

                    Orbital Energies (a.u.)
 --------------------------------------------------------------

 Alpha MOs
 -- Occupied --
-14.337 -10.243 -10.243 -10.223 -10.222 -10.212 -10.212  -0.934
 -0.829  -0.795  -0.703  -0.678  -0.562  -0.547  -0.527  -0.458
 -0.449  -0.423  -0.405  -0.395  -0.358  -0.333  -0.310  -0.263
 -0.174

 Beta MOs
 -- Occupied --
-14.329 -10.245 -10.245 -10.222 -10.221 -10.208 -10.208  -0.923
 -0.820  -0.788  -0.692  -0.676  -0.557  -0.544  -0.524  -0.456
 -0.448  -0.420  -0.392  -0.384  -0.357  -0.307  -0.287  -0.254

          Ground-State Mulliken Net Atomic Charges

     Atom                 Charge (a.u.)    Spin (a.u.)
  --------------------------------------------------------
      1 C                    -0.234808      -0.114248
      2 C                     0.100756       0.369916
      3 C                    -0.164976       0.079057
      4 C                     0.101061       0.370835
      5 C                    -0.234864      -0.114751
      6 N                    -0.176358       0.375519
      7 H                     0.126991       0.003284
      8 H                     0.127390      -0.018658
      9 H                     0.132723      -0.006778
     10 H                     0.127351      -0.018696
     11 H                     0.127000       0.003307
     12 C                    -0.165006       0.077941
     13 H                     0.132742      -0.006727
  --------------------------------------------------------
  Sum of atomic charges =    -0.000000

                    Cartesian Multipole Moments
 -----------------------------------------------------------------
    Charge (ESU x 10^10)
                -0.0000
    Dipole Moment (Debye)
         X      -1.1114      Y      -2.0652      Z       0.5231
       Tot       2.4029
    Quadrupole Moments (Debye-Ang)
        XX     -38.5640     XY      -3.6399     YY     -41.7146
        XZ      -2.7460     YZ       1.4958     ZZ     -44.0141

 Total job time:  318.00s(wall), 1228.82s(cpu)
        *  Thank you very much for using Q-Chem.  Have a nice day.  *
