 Q-Chem 5.0, Q-Chem, Inc., Pleasanton, CA (2017)
 Q-Chem 5.0.2 for Intel X86 EM64T Linux

User input:
--------------------------------------------------------------
$molecule
0 2
C        1.6788940560    0.4831173748   -0.3254226191
C        1.1472680733   -0.8115037871   -0.4356721793
C       -0.3414768064   -0.7023947536   -0.4748746117
C       -1.2147508122    0.6013225828    0.9533003207
C       -0.5218949549    0.8645749668   -0.3840361394
N        0.7983363325    1.4779555792   -0.2909041369
H        2.7415504446    0.7077504902   -0.2444427556
H        1.7213677897   -1.7315588368   -0.4442419245
H       -0.8250289056   -1.2467896183   -1.2965906657
H       -1.6238300798    1.2813387197    1.6943853014
H       -1.1308946656    1.3566780121   -1.1523330968
C       -1.0770375642   -0.7266828719    0.8758334228
H       -1.3525029078   -1.5538078583    1.5249990846
$end

$rem
method                b3lyp
basis                 6-31g(d)
unrestricted          true
symmetry              off
sym_ignore            true
incdft                false
incfock               0
scf_convergence       8
thresh                14
jobtype               opt
scf_guess             core
scf_guess_mix         5
scf_algorithm         diis
max_scf_cycles        100
geom_opt_max_cycles   300
$end

--------------------------------------------------------------

   22    -286.8754839821      8.46E-09 Convergence criterion met
 Total energy in the final basis set = -286.87548398

             Standard Nuclear Orientation (Angstroms)
    I     Atom           X                Y                Z
 ----------------------------------------------------------------
    1      C       1.6785864182     0.4827726302    -0.3246534839
    2      C       1.1470526304    -0.8117478288    -0.4362582285
    3      C      -0.3417421016    -0.7024097273    -0.4751423931
    4      C      -1.2151257383     0.6015569718     0.9530051010
    5      C      -0.5222166042     0.8645629765    -0.3843347831
    6      N       0.7982617362     1.4778695758    -0.2908445024
    7      H       2.7411767710     0.7071933806    -0.2421505935
    8      H       1.7212204975    -1.7317821702    -0.4461674774
    9      H      -0.8256238594    -1.2467755293    -1.2966771244
   10      H      -1.6246018247     1.2817247554     1.6937878483
   11      H      -1.1307315785     1.3567924101    -1.1528759836
   12      C      -1.0761477772    -0.7264332602     0.8761026354
   13      H      -1.3501085697    -1.5533241849     1.5262089856
 ----------------------------------------------------------------

   16    -286.8754845636      5.81E-09 Convergence criterion met
 Total energy in the final basis set = -286.87548456
 Final energy is   -286.875484563560
 **  OPTIMIZATION CONVERGED  **

                    Orbital Energies (a.u.)
 --------------------------------------------------------------

 Alpha MOs
 -- Occupied --
-14.328 -10.217 -10.216 -10.207 -10.203 -10.200 -10.195  -0.944
 -0.837  -0.752  -0.665  -0.618  -0.554  -0.523  -0.515  -0.481
 -0.428  -0.403  -0.386  -0.354  -0.341  -0.322  -0.270  -0.253
 -0.203

 Beta MOs
 -- Occupied --
-14.318 -10.219 -10.218 -10.203 -10.199 -10.198 -10.194  -0.932
 -0.831  -0.734  -0.665  -0.610  -0.549  -0.520  -0.512  -0.475
 -0.420  -0.396  -0.381  -0.343  -0.334  -0.301  -0.264  -0.246

          Ground-State Mulliken Net Atomic Charges

     Atom                 Charge (a.u.)    Spin (a.u.)
  --------------------------------------------------------
      1 C                     0.048227      -0.230741
      2 C                    -0.114873       0.693483
      3 C                    -0.193773      -0.053961
      4 C                    -0.075952       0.032337
      5 C                    -0.061593      -0.027746
      6 N                    -0.351440       0.516710
      7 H                     0.140585       0.007433
      8 H                     0.143378      -0.032160
      9 H                     0.148162       0.025241
     10 H                     0.137380       0.003616
     11 H                     0.151474       0.025315
     12 C                    -0.104919       0.033607
     13 H                     0.133343       0.006866
  --------------------------------------------------------
  Sum of atomic charges =    -0.000000

                    Cartesian Multipole Moments
 -----------------------------------------------------------------
    Charge (ESU x 10^10)
                -0.0000
    Dipole Moment (Debye)
         X      -0.4595      Y      -2.1041      Z       0.0155
       Tot       2.1538
    Quadrupole Moments (Debye-Ang)
        XX     -37.9384     XY      -2.7861     YY     -42.6232
        XZ      -0.5661     YZ       0.5472     ZZ     -39.8473

 Total job time:  31.02s(wall), 109.72s(cpu)
        *  Thank you very much for using Q-Chem.  Have a nice day.  *
