 Q-Chem 5.0, Q-Chem, Inc., Pleasanton, CA (2017)
 Q-Chem 5.0.2 for Intel X86 EM64T Linux

User input:
--------------------------------------------------------------
$molecule
0 2
C        1.5035376980    0.4255142910   -0.6445151205
C        1.1644220702   -0.9055780454   -0.4846402596
C       -0.0585517045   -1.4553050711    0.0414482244
C       -1.2909871391    0.6711360798    0.5414218192
C       -0.3878717608    1.6387500233    0.1458513185
N        0.8578212239    1.5846968985   -0.3832079680
H        2.4957645498    0.5966397039   -1.0679234221
H        1.9191119173   -1.6235205895   -0.7965938898
H       -0.1123765554   -2.5415801874    0.0785078455
H       -2.2328185316    1.0423261908    0.9384368455
H       -0.7301868482    2.6672819023    0.2788079180
C       -1.1408808593   -0.7611911964    0.4931705073
H       -1.9869840602   -1.3391700000    0.8592361815
$end

$rem
method                b3lyp
basis                 6-31g(d)
unrestricted          true
symmetry              off
sym_ignore            true
incdft                false
incfock               0
scf_convergence       8
thresh                14
jobtype               opt
scf_guess             core
scf_guess_mix         5
scf_algorithm         diis
max_scf_cycles        100
geom_opt_max_cycles   300
$end

--------------------------------------------------------------

   23    -286.9243414625      3.09E-09 Convergence criterion met
 Total energy in the final basis set = -286.92434146

             Standard Nuclear Orientation (Angstroms)
    I     Atom           X                Y                Z
 ----------------------------------------------------------------
    1      C       1.5039242055     0.4253792097    -0.6441996928
    2      C       1.1647526050    -0.9057043706    -0.4841773303
    3      C      -0.0582998158    -1.4554082750     0.0419821970
    4      C      -1.2913909421     0.6712706847     0.5410666636
    5      C      -0.3880609985     1.6389254324     0.1454118276
    6      N       0.8577840515     1.5848353231    -0.3834974780
    7      H       2.4959217614     0.5968924178    -1.0682287450
    8      H       1.9190059538    -1.6238893019    -0.7967854381
    9      H      -0.1127561260    -2.5416599404     0.0776065574
   10      H      -2.2332918587     1.0421679065     0.9381933643
   11      H      -0.7300364949     2.6675445331     0.2793289133
   12      C      -1.1407549952    -0.7611445694     0.4935864038
   13      H      -1.9867973460    -1.3392090501     0.8597127571
 ----------------------------------------------------------------

   18    -286.9243420069      2.94E-09 Convergence criterion met
 Total energy in the final basis set = -286.92434201
 Final energy is   -286.924342006891
 **  OPTIMIZATION CONVERGED  **

                    Orbital Energies (a.u.)
 --------------------------------------------------------------

 Alpha MOs
 -- Occupied --
-14.322 -10.232 -10.232 -10.212 -10.211 -10.201 -10.200  -0.922
 -0.818  -0.784  -0.693  -0.667  -0.551  -0.537  -0.518  -0.449
 -0.439  -0.414  -0.394  -0.386  -0.349  -0.322  -0.299  -0.251
 -0.162

 Beta MOs
 -- Occupied --
-14.314 -10.234 -10.233 -10.210 -10.210 -10.196 -10.196  -0.911
 -0.809  -0.777  -0.681  -0.665  -0.546  -0.535  -0.514  -0.447
 -0.438  -0.411  -0.383  -0.373  -0.348  -0.295  -0.276  -0.241

          Ground-State Mulliken Net Atomic Charges

     Atom                 Charge (a.u.)    Spin (a.u.)
  --------------------------------------------------------
      1 C                     0.036075      -0.115103
      2 C                    -0.132015       0.351192
      3 C                    -0.110810       0.088554
      4 C                    -0.130816       0.342838
      5 C                     0.034725      -0.110171
      6 N                    -0.423196       0.386928
      7 H                     0.142585       0.003524
      8 H                     0.134320      -0.018529
      9 H                     0.141981      -0.006388
     10 H                     0.134396      -0.018141
     11 H                     0.142675       0.003281
     12 C                    -0.111815       0.098900
     13 H                     0.141896      -0.006883
  --------------------------------------------------------
  Sum of atomic charges =    -0.000000

                    Cartesian Multipole Moments
 -----------------------------------------------------------------
    Charge (ESU x 10^10)
                 0.0000
    Dipole Moment (Debye)
         X      -1.0435      Y      -1.9303      Z       0.4667
       Tot       2.2433
    Quadrupole Moments (Debye-Ang)
        XX     -37.4207     XY      -3.2707     YY     -40.2588
        XZ      -2.4884     YZ       1.3572     ZZ     -42.3187

 Total job time:  29.73s(wall), 112.54s(cpu)
        *  Thank you very much for using Q-Chem.  Have a nice day.  *
