 Q-Chem 5.0, Q-Chem, Inc., Pleasanton, CA (2017)
 Q-Chem 5.0.2 for Intel X86 EM64T Linux

User input:
--------------------------------------------------------------
$molecule
0 2
C        1.6819772115    0.4842555239   -0.3492597867
C        1.1589924081   -0.8435413589   -0.4744597036
C       -0.2581162249   -0.9762137347   -0.3994887033
C       -1.2440230062    0.6376212360    0.9389887612
C       -0.4947819096    1.1335871218   -0.2784319554
N        0.8393204173    1.4699189932   -0.2182422282
H        2.7476928875    0.6819545187   -0.4435667168
H        1.8223227758   -1.6642807607   -0.6995976802
H       -0.6473071056   -1.8120127607   -0.9795014283
H       -1.8689381432    1.2308315474    1.5928963370
H       -1.0797785699    1.7798284578   -0.9512383141
C       -1.1147472970   -0.6765902214    0.8295417137
H       -1.6027831594   -1.4634024367    1.3998291467
$end

$rem
method                b3lyp
basis                 6-31g(d)
unrestricted          true
symmetry              off
sym_ignore            true
incdft                false
incfock               0
scf_convergence       8
thresh                14
jobtype               ts
scf_guess             read
scf_algorithm         diis
max_scf_cycles        100
geom_opt_max_cycles   500
geom_opt_dmax         100
geom_opt_tol_gradient 10
geom_opt_hessian      read
$end

--------------------------------------------------------------

    2    -286.8341414927      6.93E-10 Convergence criterion met
 Total energy in the final basis set = -286.83414149
   15    -286.8363534075      5.20E-09 Convergence criterion met
 Total energy in the final basis set = -286.83635341
   15    -286.8382743116      4.80E-09 Convergence criterion met
 Total energy in the final basis set = -286.83827431
   14    -286.8398963016      7.75E-09 Convergence criterion met
 Total energy in the final basis set = -286.83989630
   14    -286.8412527644      8.60E-09 Convergence criterion met
 Total energy in the final basis set = -286.84125276
   14    -286.8423742118      8.94E-09 Convergence criterion met
 Total energy in the final basis set = -286.84237421
   14    -286.8432858144      8.51E-09 Convergence criterion met
 Total energy in the final basis set = -286.84328581
   14    -286.8440081935      7.75E-09 Convergence criterion met
   14    -286.8445582140      7.12E-09 Convergence criterion met
 Total energy in the final basis set = -286.84455821
   14    -286.8449497906      6.83E-09 Convergence criterion met
 Total energy in the final basis set = -286.84494979
   14    -286.8451942155      6.77E-09 Convergence criterion met
 Total energy in the final basis set = -286.84519422
   14    -286.8453001998      6.84E-09 Convergence criterion met
 Total energy in the final basis set = -286.84530020
   13    -286.8453059197      6.25E-09 Convergence criterion met
 Total energy in the final basis set = -286.84530592
    9    -286.8453059096      9.07E-09 Convergence criterion met
 Total energy in the final basis set = -286.84530591

             Standard Nuclear Orientation (Angstroms)
    I     Atom           X                Y                Z
 ----------------------------------------------------------------
    1      C       1.6316925360     0.4907998443    -0.2369431323
    2      C       1.1138847553    -0.8106107325    -0.4879154461
    3      C      -0.3008548317    -0.9733479592    -0.4183922610
    4      C      -1.2162709803     0.6628471478     0.9106635746
    5      C      -0.5234319129     1.0983001125    -0.3385070600
    6      N       0.7876532278     1.4963513839    -0.1949450592
    7      H       2.6961039544     0.6910933742    -0.1223369540
    8      H       1.7602304603    -1.5865032714    -0.8919828941
    9      H      -0.7010902000    -1.7748781512    -1.0494521610
   10      H      -1.5914534985     1.2905551443     1.7142355152
   11      H      -1.0866809895     1.4922578174    -1.1882919946
   12      C      -1.1145913412    -0.6625258752     0.8042865668
   13      H      -1.5153608953    -1.4323827094     1.4670507479
 ----------------------------------------------------------------

    8    -286.8453059121      5.46E-09 Convergence criterion met
 Total energy in the final basis set = -286.84530591
 Final energy is   -286.845305912087
 **  OPTIMIZATION CONVERGED  **

                    Orbital Energies (a.u.)
 --------------------------------------------------------------

 Alpha MOs
 -- Occupied --
-14.336 -10.242 -10.225 -10.201 -10.200 -10.199 -10.192  -0.948
 -0.820  -0.766  -0.666  -0.637  -0.541  -0.533  -0.515  -0.463
 -0.452  -0.412  -0.402  -0.374  -0.333  -0.310  -0.268  -0.235
 -0.182

 Beta MOs
 -- Occupied --
-14.329 -10.236 -10.225 -10.202 -10.199 -10.193 -10.193  -0.935
 -0.814  -0.755  -0.661  -0.629  -0.534  -0.529  -0.510  -0.458
 -0.445  -0.406  -0.397  -0.365  -0.318  -0.289  -0.263  -0.224

          Ground-State Mulliken Net Atomic Charges

     Atom                 Charge (a.u.)    Spin (a.u.)
  --------------------------------------------------------
      1 C                     0.045887      -0.075528
      2 C                    -0.110082       0.463068
      3 C                    -0.222361      -0.111547
      4 C                    -0.085118      -0.034856
      5 C                    -0.065839       0.340374
      6 N                    -0.333119       0.327909
      7 H                     0.143131       0.001650
      8 H                     0.140934      -0.026250
      9 H                     0.129947       0.017089
     10 H                     0.143660       0.004668
     11 H                     0.166831       0.009391
     12 C                    -0.090905       0.057268
     13 H                     0.137036       0.026764
  --------------------------------------------------------
  Sum of atomic charges =    -0.000000

                    Cartesian Multipole Moments
 -----------------------------------------------------------------
    Charge (ESU x 10^10)
                -0.0000
    Dipole Moment (Debye)
         X      -0.4600      Y      -1.3031      Z      -0.0547
       Tot       1.3830
    Quadrupole Moments (Debye-Ang)
        XX     -37.8716     XY      -2.3074     YY     -41.6889
        XZ      -1.1444     YZ       0.4420     ZZ     -40.0829

 Total job time:  154.78s(wall), 577.84s(cpu)
        *  Thank you very much for using Q-Chem.  Have a nice day.  *
