 Q-Chem 5.0, Q-Chem, Inc., Pleasanton, CA (2017)
 Q-Chem 5.0.2 for Intel X86 EM64T Linux

User input:
--------------------------------------------------------------
$molecule
0 2
C        1.6316925360    0.4907998443   -0.2369431323
C        1.1138847553   -0.8106107325   -0.4879154461
C       -0.3008548317   -0.9733479592   -0.4183922610
C       -1.2162709803    0.6628471478    0.9106635746
C       -0.5234319129    1.0983001125   -0.3385070600
N        0.7876532278    1.4963513839   -0.1949450592
H        2.6961039544    0.6910933742   -0.1223369540
H        1.7602304603   -1.5865032714   -0.8919828941
H       -0.7010902000   -1.7748781512   -1.0494521610
H       -1.5914534985    1.2905551443    1.7142355152
H       -1.0866809895    1.4922578174   -1.1882919946
C       -1.1145913412   -0.6625258752    0.8042865668
H       -1.5153608953   -1.4323827094    1.4670507479
$end

$rem
method                b3lyp
basis                 6-31+g(d,p)
unrestricted          true
symmetry              off
sym_ignore            true
incdft                false
incfock               0
scf_convergence       8
thresh                14
jobtype               ts
scf_guess             read
scf_algorithm         diis
max_scf_cycles        100
geom_opt_max_cycles   500
geom_opt_dmax         100
geom_opt_tol_gradient 10
geom_opt_hessian      read
$end

--------------------------------------------------------------

    2    -286.8682423527      7.03E-10 Convergence criterion met
 Total energy in the final basis set = -286.86824235
   13    -286.8682620907      9.28E-09 Convergence criterion met
 Total energy in the final basis set = -286.86826209

             Standard Nuclear Orientation (Angstroms)
    I     Atom           X                Y                Z
 ----------------------------------------------------------------
    1      C       1.6371303157     0.4901384190    -0.2366974928
    2      C       1.1167667278    -0.8115021939    -0.4881355414
    3      C      -0.3006460809    -0.9695799080    -0.4173720214
    4      C      -1.2176248587     0.6641266033     0.9141448228
    5      C      -0.5242449040     1.0955368247    -0.3375074837
    6      N       0.7876543044     1.4929737220    -0.1936104735
    7      H       2.7002376086     0.6927100928    -0.1258264171
    8      H       1.7601722093    -1.5887371066    -0.8932311067
    9      H      -0.7040598482    -1.7645226055    -1.0533908114
   10      H      -1.5999052319     1.2934520742     1.7121743897
   11      H      -1.0869163905     1.4847064833    -1.1892032907
   12      C      -1.1137027296    -0.6631252181     0.8082762610
   13      H      -1.5150308378    -1.4342210615     1.4678486073
 ----------------------------------------------------------------

    7    -286.8682620942      8.46E-09 Convergence criterion met
 Total energy in the final basis set = -286.86826209
 Final energy is   -286.868262094201
 **  OPTIMIZATION CONVERGED  **

                    Orbital Energies (a.u.)
 --------------------------------------------------------------

 Alpha MOs
 -- Occupied --
-14.352 -10.254 -10.237 -10.213 -10.212 -10.212 -10.204  -0.961
 -0.832  -0.778  -0.677  -0.647  -0.551  -0.543  -0.525  -0.474
 -0.462  -0.423  -0.413  -0.384  -0.344  -0.322  -0.280  -0.248
 -0.195

 Beta MOs
 -- Occupied --
-14.345 -10.249 -10.237 -10.214 -10.211 -10.205 -10.205  -0.949
 -0.827  -0.767  -0.672  -0.640  -0.544  -0.539  -0.520  -0.468
 -0.455  -0.417  -0.408  -0.375  -0.329  -0.302  -0.275  -0.237

          Ground-State Mulliken Net Atomic Charges

     Atom                 Charge (a.u.)    Spin (a.u.)
  --------------------------------------------------------
      1 C                    -0.196910      -0.102357
      2 C                    -0.030557       0.506643
      3 C                    -0.145996      -0.109828
      4 C                    -0.114236      -0.050136
      5 C                    -0.155036       0.356526
      6 N                    -0.141609       0.321390
      7 H                     0.131225       0.001963
      8 H                     0.137145      -0.026281
      9 H                     0.123955       0.016453
     10 H                     0.138309       0.004299
     11 H                     0.158174       0.012484
     12 C                    -0.037706       0.043106
     13 H                     0.133242       0.025737
  --------------------------------------------------------
  Sum of atomic charges =    -0.000000

                    Cartesian Multipole Moments
 -----------------------------------------------------------------
    Charge (ESU x 10^10)
                -0.0000
    Dipole Moment (Debye)
         X      -0.4857      Y      -1.4468      Z      -0.1423
       Tot       1.5327
    Quadrupole Moments (Debye-Ang)
        XX     -39.0534     XY      -2.4437     YY     -43.4144
        XZ      -1.3109     YZ       0.4906     ZZ     -41.5580

 Total job time:  42.95s(wall), 163.27s(cpu)
        *  Thank you very much for using Q-Chem.  Have a nice day.  *
