 Q-Chem 5.0, Q-Chem, Inc., Pleasanton, CA (2017)
 Q-Chem 5.0.2 for Intel X86 EM64T Linux

User input:
--------------------------------------------------------------
$molecule
0 2
C        1.6316925360    0.4907998443   -0.2369431323
C        1.1138847553   -0.8106107325   -0.4879154461
C       -0.3008548317   -0.9733479592   -0.4183922610
C       -1.2162709803    0.6628471478    0.9106635746
C       -0.5234319129    1.0983001125   -0.3385070600
N        0.7876532278    1.4963513839   -0.1949450592
H        2.6961039544    0.6910933742   -0.1223369540
H        1.7602304603   -1.5865032714   -0.8919828941
H       -0.7010902000   -1.7748781512   -1.0494521610
H       -1.5914534985    1.2905551443    1.7142355152
H       -1.0866809895    1.4922578174   -1.1882919946
C       -1.1145913412   -0.6625258752    0.8042865668
H       -1.5153608953   -1.4323827094    1.4670507479
$end

$rem
method                b3lyp
basis                 6-31g(d)
unrestricted          true
symmetry              off
sym_ignore            true
incdft                false
incfock               0
scf_convergence       6
thresh                14
jobtype               sp
scf_guess             read
scf_algorithm         diis
max_scf_cycles        100
stability_analysis    true
max_cis_cycles        100
cis_n_roots           4
$end

--------------------------------------------------------------

             Standard Nuclear Orientation (Angstroms)
    I     Atom           X                Y                Z
 ----------------------------------------------------------------
    1      C       1.6316925360     0.4907998443    -0.2369431323
    2      C       1.1138847553    -0.8106107325    -0.4879154461
    3      C      -0.3008548317    -0.9733479592    -0.4183922610
    4      C      -1.2162709803     0.6628471478     0.9106635746
    5      C      -0.5234319129     1.0983001125    -0.3385070600
    6      N       0.7876532278     1.4963513839    -0.1949450592
    7      H       2.6961039544     0.6910933742    -0.1223369540
    8      H       1.7602304603    -1.5865032714    -0.8919828941
    9      H      -0.7010902000    -1.7748781512    -1.0494521610
   10      H      -1.5914534985     1.2905551443     1.7142355152
   11      H      -1.0866809895     1.4922578174    -1.1882919946
   12      C      -1.1145913412    -0.6625258752     0.8042865668
   13      H      -1.5153608953    -1.4323827094     1.4670507479
 ----------------------------------------------------------------

    2    -286.8453059121      3.28E-09 Convergence criterion met
 Total energy in the final basis set = -286.84530591

         TDDFT/TDA Excitation Energies
 ---------------------------------------------------

 Excited state   1: excitation energy (eV) =    2.1857
 Total energy for state  1:                  -286.76498178 au
    <S**2>     :  0.7896
    Trans. Mom.: -0.2888 X   0.0610 Y   0.0809 Z
    Strength   :     0.0050146115
    D( 24) --> S(  1) amplitude =  0.9694 beta

 Excited state   2: excitation energy (eV) =    3.1613
 Total energy for state  2:                  -286.72913034 au
    <S**2>     :  0.9163
    Trans. Mom.: -0.1974 X   0.2044 Y  -0.0044 Z
    Strength   :     0.0062551399
    S(  1) --> V(  1) amplitude =  0.8152 alpha
    S(  1) --> V(  2) amplitude =  0.1676 alpha
    D( 22) --> S(  1) amplitude =  0.2492 beta
    D( 23) --> S(  1) amplitude =  0.3914 beta

 Excited state   3: excitation energy (eV) =    3.4424
 Total energy for state  3:                  -286.71879851 au
    <S**2>     :  0.9172
    Trans. Mom.:  0.0310 X  -0.0604 Y   0.0737 Z
    Strength   :     0.0008465716
    D( 24) --> V(  1) amplitude =  0.1523 alpha
    S(  1) --> V(  1) amplitude = -0.3917 alpha
    D( 23) --> S(  1) amplitude =  0.8770 beta

 Excited state   4: excitation energy (eV) =    3.9074
 Total energy for state  4:                  -286.70171186 au
    <S**2>     :  0.8657
    Trans. Mom.:  0.0826 X   0.0473 Y  -0.0420 Z
    Strength   :     0.0010353780
    S(  1) --> V(  1) amplitude = -0.2146 alpha
    S(  1) --> V(  2) amplitude =  0.6514 alpha
    D( 22) --> S(  1) amplitude =  0.6530 beta
    D( 23) --> S(  1) amplitude = -0.1966 beta

 ---------------------------------------------------

                    Orbital Energies (a.u.)
 --------------------------------------------------------------

 Alpha MOs
 -- Occupied --
-14.336 -10.242 -10.225 -10.201 -10.200 -10.199 -10.192  -0.948
 -0.820  -0.766  -0.666  -0.637  -0.541  -0.533  -0.515  -0.463
 -0.452  -0.412  -0.402  -0.374  -0.333  -0.310  -0.268  -0.235
 -0.182

 Beta MOs
 -- Occupied --
-14.329 -10.236 -10.225 -10.202 -10.199 -10.193 -10.193  -0.935
 -0.814  -0.755  -0.661  -0.629  -0.534  -0.529  -0.510  -0.458
 -0.445  -0.406  -0.397  -0.365  -0.318  -0.289  -0.263  -0.224

          Ground-State Mulliken Net Atomic Charges

     Atom                 Charge (a.u.)    Spin (a.u.)
  --------------------------------------------------------
      1 C                     0.045887      -0.075529
      2 C                    -0.110082       0.463069
      3 C                    -0.222361      -0.111548
      4 C                    -0.085118      -0.034856
      5 C                    -0.065839       0.340373
      6 N                    -0.333119       0.327910
      7 H                     0.143131       0.001650
      8 H                     0.140934      -0.026250
      9 H                     0.129947       0.017089
     10 H                     0.143660       0.004668
     11 H                     0.166831       0.009391
     12 C                    -0.090905       0.057269
     13 H                     0.137036       0.026764
  --------------------------------------------------------
  Sum of atomic charges =    -0.000000

                    Cartesian Multipole Moments
 -----------------------------------------------------------------
    Charge (ESU x 10^10)
                -0.0000
    Dipole Moment (Debye)
         X      -0.4600      Y      -1.3031      Z      -0.0547
       Tot       1.3830
    Quadrupole Moments (Debye-Ang)
        XX     -37.8716     XY      -2.3074     YY     -41.6889
        XZ      -1.1444     YZ       0.4420     ZZ     -40.0829

 Total job time:  87.89s(wall), 85.60s(cpu)
        *  Thank you very much for using Q-Chem.  Have a nice day.  *
