 Q-Chem 5.0, Q-Chem, Inc., Pleasanton, CA (2017)
 Q-Chem 5.0.2 for Intel X86 EM64T Linux

User input:
--------------------------------------------------------------
$molecule
0 2
C        1.6819772115    0.4842555239   -0.3492597867
C        1.1589924081   -0.8435413589   -0.4744597036
C       -0.2581162249   -0.9762137347   -0.3994887033
C       -1.2440230062    0.6376212360    0.9389887612
C       -0.4947819096    1.1335871218   -0.2784319554
N        0.8393204173    1.4699189932   -0.2182422282
H        2.7476928875    0.6819545187   -0.4435667168
H        1.8223227758   -1.6642807607   -0.6995976802
H       -0.6473071056   -1.8120127607   -0.9795014283
H       -1.8689381432    1.2308315474    1.5928963370
H       -1.0797785699    1.7798284578   -0.9512383141
C       -1.1147472970   -0.6765902214    0.8295417137
H       -1.6027831594   -1.4634024367    1.3998291467
$end

$rem
method                b3lyp
basis                 6-31g(d)
unrestricted          true
symmetry              off
sym_ignore            true
incdft                false
incfock               0
scf_convergence       8
thresh                14
jobtype               freq
scf_guess             read
scf_algorithm         diis
max_scf_cycles        100
$end

--------------------------------------------------------------

             Standard Nuclear Orientation (Angstroms)
    I     Atom           X                Y                Z
 ----------------------------------------------------------------
    1      C       1.6819772115     0.4842555239    -0.3492597867
    2      C       1.1589924081    -0.8435413589    -0.4744597036
    3      C      -0.2581162249    -0.9762137347    -0.3994887033
    4      C      -1.2440230062     0.6376212360     0.9389887612
    5      C      -0.4947819096     1.1335871218    -0.2784319554
    6      N       0.8393204173     1.4699189932    -0.2182422282
    7      H       2.7476928875     0.6819545187    -0.4435667168
    8      H       1.8223227758    -1.6642807607    -0.6995976802
    9      H      -0.6473071056    -1.8120127607    -0.9795014283
   10      H      -1.8689381432     1.2308315474     1.5928963370
   11      H      -1.0797785699     1.7798284578    -0.9512383141
   12      C      -1.1147472970    -0.6765902214     0.8295417137
   13      H      -1.6027831594    -1.4634024367     1.3998291467
 ----------------------------------------------------------------

    2    -286.8341414927      3.52E-09 Convergence criterion met
 Total energy in the final basis set = -286.83414149

                    Orbital Energies (a.u.)
 --------------------------------------------------------------

 Alpha MOs
 -- Occupied --
-14.340 -10.243 -10.224 -10.203 -10.198 -10.197 -10.192  -0.946
 -0.816  -0.765  -0.669  -0.638  -0.537  -0.533  -0.517  -0.463
 -0.441  -0.417  -0.400  -0.370  -0.340  -0.301  -0.280  -0.220
 -0.187

 Beta MOs
 -- Occupied --
-14.332 -10.238 -10.225 -10.201 -10.200 -10.193 -10.192  -0.932
 -0.811  -0.755  -0.664  -0.630  -0.532  -0.527  -0.512  -0.458
 -0.434  -0.408  -0.396  -0.361  -0.326  -0.281  -0.272  -0.210

          Ground-State Mulliken Net Atomic Charges

     Atom                 Charge (a.u.)    Spin (a.u.)
  --------------------------------------------------------
      1 C                     0.054554      -0.052193
      2 C                    -0.116128       0.432380
      3 C                    -0.223588      -0.143148
      4 C                    -0.085577      -0.042983
      5 C                    -0.055640       0.342651
      6 N                    -0.330087       0.338490
      7 H                     0.144386       0.001636
      8 H                     0.139483      -0.025601
      9 H                     0.130596       0.021572
     10 H                     0.141815       0.003488
     11 H                     0.154076       0.014522
     12 C                    -0.095798       0.089479
     13 H                     0.141910       0.019708
  --------------------------------------------------------
  Sum of atomic charges =     0.000000

                    Cartesian Multipole Moments
 -----------------------------------------------------------------
    Charge (ESU x 10^10)
                 0.0000
    Dipole Moment (Debye)
         X      -0.5891      Y      -1.2260      Z       0.0849
       Tot       1.3629
    Quadrupole Moments (Debye-Ang)
        XX     -36.8243     XY      -2.5219     YY     -40.6916
        XZ      -1.9250     YZ       0.0981     ZZ     -41.2547

 Frequency:      -764.11                 220.53                 299.65
 Force Cnst:      1.0818                 0.0841                 0.1598
 Red. Mass:       3.1449                 2.9346                 3.0216
 IR Intens:       27.869                  1.419                  6.793
 Frequency:       440.85                 529.65                 553.21
 Force Cnst:      0.3069                 0.4157                 0.7756
 Red. Mass:       2.6806                 2.5153                 4.3015
 IR Intens:        6.941                 15.297                 14.320
 Frequency:       679.78                 709.69                 750.40
 Force Cnst:      0.4493                 0.6454                 0.5129
 Red. Mass:       1.6502                 2.1749                 1.5459
 IR Intens:       27.427                 45.932                 11.474
 Frequency:       794.13                 850.23                 909.65
 Force Cnst:      0.8289                 1.0440                 0.9669
 Red. Mass:       2.2309                 2.4513                 1.9833
 IR Intens:        1.929                 11.976                 37.049
 Frequency:       929.96                 938.12                 948.55
 Force Cnst:      0.8221                 0.8093                 1.2978
 Red. Mass:       1.6134                 1.5607                 2.4481
 IR Intens:        3.064                  6.760                  2.874
 Frequency:       974.74                1036.85                1108.19
 Force Cnst:      1.3548                 1.2666                 0.8617
 Red. Mass:       2.4201                 1.9996                 1.1909
 IR Intens:       18.423                  2.356                  5.670
 Frequency:      1121.86                1171.40                1306.90
 Force Cnst:      1.1791                 1.2533                 1.5156
 Red. Mass:       1.5901                 1.5502                 1.5061
 IR Intens:       28.452                  1.254                 13.919
 Frequency:      1333.98                1358.47                1394.10
 Force Cnst:      1.4360                 1.8238                 2.2672
 Red. Mass:       1.3696                 1.6773                 1.9800
 IR Intens:       11.725                  3.444                 16.183
 Frequency:      1415.53                1552.48                1711.40
 Force Cnst:      3.7999                 7.0538                10.6276
 Red. Mass:       3.2187                 4.9673                 6.1586
 IR Intens:       25.087                  1.510                  3.898
 Frequency:      3041.21                3138.34                3186.84
 Force Cnst:      5.9058                 6.2837                 6.5202
 Red. Mass:       1.0838                 1.0828                 1.0897
 IR Intens:       24.452                 25.547                 26.489
 Frequency:      3191.02                3257.66                3268.48
 Force Cnst:      6.5403                 6.8909                 6.8639
 Red. Mass:       1.0902                 1.1021                 1.0905
 IR Intens:       26.038                 22.977                 19.303

 STANDARD THERMODYNAMIC QUANTITIES AT   298.15 K  AND     1.00 ATM

   This Molecule has  1 Imaginary Frequencies
   Zero point vibrational energy:       63.078 kcal/mol

   Atom    1 Element C  Has Mass   12.00000
   Atom    2 Element C  Has Mass   12.00000
   Atom    3 Element C  Has Mass   12.00000
   Atom    4 Element C  Has Mass   12.00000
   Atom    5 Element C  Has Mass   12.00000
   Atom    6 Element N  Has Mass   14.00307
   Atom    7 Element H  Has Mass    1.00783
   Atom    8 Element H  Has Mass    1.00783
   Atom    9 Element H  Has Mass    1.00783
   Atom   10 Element H  Has Mass    1.00783
   Atom   11 Element H  Has Mass    1.00783
   Atom   12 Element C  Has Mass   12.00000
   Atom   13 Element H  Has Mass    1.00783
   Molecular Mass:    92.050050 amu
   Principal axes and moments of inertia in amu*Bohr^2:
                             1           2           3
    Eigenvalues --      365.29282   534.39248   800.92122
          X               0.90668    -0.11747     0.40512
          Y               0.14936     0.98762    -0.04789
          Z              -0.39448     0.10393     0.91301
   Rotational Symmetry Number is   1
   The Molecule is an Asymmetric Top
   Translational Enthalpy:        0.889 kcal/mol
   Rotational Enthalpy:           0.889 kcal/mol
   Vibrational Enthalpy:         64.623 kcal/mol
   gas constant (RT):             0.592 kcal/mol
   Translational Entropy:        39.471  cal/mol.K
   Rotational Entropy:           26.550  cal/mol.K
   Vibrational Entropy:           7.545  cal/mol.K

   Total Enthalpy:               66.993 kcal/mol
   Total Entropy:                73.565  cal/mol.K

 Total job time:  260.98s(wall), 259.74s(cpu)
        *  Thank you very much for using Q-Chem.  Have a nice day.  *
