 Q-Chem 5.0, Q-Chem, Inc., Pleasanton, CA (2017)
 Q-Chem 5.0.2 for Intel X86 EM64T Linux

User input:
--------------------------------------------------------------
$molecule
0 2
C        1.6371303157    0.4901384190   -0.2366974928
C        1.1167667278   -0.8115021939   -0.4881355414
C       -0.3006460809   -0.9695799080   -0.4173720214
C       -1.2176248587    0.6641266033    0.9141448228
C       -0.5242449040    1.0955368247   -0.3375074837
N        0.7876543044    1.4929737220   -0.1936104735
H        2.7002376086    0.6927100928   -0.1258264171
H        1.7601722093   -1.5887371066   -0.8932311067
H       -0.7040598482   -1.7645226055   -1.0533908114
H       -1.5999052319    1.2934520742    1.7121743897
H       -1.0869163905    1.4847064833   -1.1892032907
C       -1.1137027296   -0.6631252181    0.8082762610
H       -1.5150308378   -1.4342210615    1.4678486073
$end

$rem
method                b3lyp
basis                 6-31+g(d,p)
unrestricted          true
symmetry              off
sym_ignore            true
incdft                false
incfock               0
scf_convergence       8
thresh                14
jobtype               freq
scf_guess             read
scf_algorithm         diis
max_scf_cycles        100
$end

--------------------------------------------------------------

             Standard Nuclear Orientation (Angstroms)
    I     Atom           X                Y                Z
 ----------------------------------------------------------------
    1      C       1.6371303157     0.4901384190    -0.2366974928
    2      C       1.1167667278    -0.8115021939    -0.4881355414
    3      C      -0.3006460809    -0.9695799080    -0.4173720214
    4      C      -1.2176248587     0.6641266033     0.9141448228
    5      C      -0.5242449040     1.0955368247    -0.3375074837
    6      N       0.7876543044     1.4929737220    -0.1936104735
    7      H       2.7002376086     0.6927100928    -0.1258264171
    8      H       1.7601722093    -1.5887371066    -0.8932311067
    9      H      -0.7040598482    -1.7645226055    -1.0533908114
   10      H      -1.5999052319     1.2934520742     1.7121743897
   11      H      -1.0869163905     1.4847064833    -1.1892032907
   12      C      -1.1137027296    -0.6631252181     0.8082762610
   13      H      -1.5150308378    -1.4342210615     1.4678486073
 ----------------------------------------------------------------

    2    -286.8682620942      1.32E-09 Convergence criterion met
 Total energy in the final basis set = -286.86826209

                    Orbital Energies (a.u.)
 --------------------------------------------------------------

 Alpha MOs
 -- Occupied --
-14.352 -10.254 -10.237 -10.213 -10.212 -10.212 -10.204  -0.961
 -0.832  -0.778  -0.677  -0.647  -0.551  -0.543  -0.525  -0.474
 -0.462  -0.423  -0.413  -0.384  -0.344  -0.322  -0.280  -0.248
 -0.195

 Beta MOs
 -- Occupied --
-14.345 -10.249 -10.237 -10.214 -10.211 -10.205 -10.205  -0.949
 -0.827  -0.767  -0.672  -0.640  -0.544  -0.539  -0.520  -0.468
 -0.455  -0.417  -0.408  -0.375  -0.329  -0.302  -0.275  -0.237

          Ground-State Mulliken Net Atomic Charges

     Atom                 Charge (a.u.)    Spin (a.u.)
  --------------------------------------------------------
      1 C                    -0.196910      -0.102361
      2 C                    -0.030556       0.506648
      3 C                    -0.145996      -0.109832
      4 C                    -0.114236      -0.050136
      5 C                    -0.155036       0.356526
      6 N                    -0.141609       0.321393
      7 H                     0.131225       0.001963
      8 H                     0.137145      -0.026281
      9 H                     0.123955       0.016453
     10 H                     0.138309       0.004299
     11 H                     0.158174       0.012484
     12 C                    -0.037706       0.043107
     13 H                     0.133242       0.025737
  --------------------------------------------------------
  Sum of atomic charges =     0.000000

                    Cartesian Multipole Moments
 -----------------------------------------------------------------
    Charge (ESU x 10^10)
                 0.0000
    Dipole Moment (Debye)
         X      -0.4857      Y      -1.4468      Z      -0.1423
       Tot       1.5327
    Quadrupole Moments (Debye-Ang)
        XX     -39.0534     XY      -2.4438     YY     -43.4144
        XZ      -1.3109     YZ       0.4906     ZZ     -41.5580

 Frequency:      -618.96                 240.55                 306.00
 Force Cnst:      0.9154                 0.0976                 0.1694
 Red. Mass:       4.0553                 2.8640                 3.0705
 IR Intens:       16.767                  0.949                  6.748
 Frequency:       445.00                 530.97                 571.26
 Force Cnst:      0.3238                 0.4390                 0.7183
 Red. Mass:       2.7752                 2.6428                 3.7356
 IR Intens:        5.067                  7.471                 12.657
 Frequency:       687.98                 720.40                 759.61
 Force Cnst:      0.4704                 0.4973                 0.5555
 Red. Mass:       1.6868                 1.6262                 1.6341
 IR Intens:       15.144                 42.674                 65.692
 Frequency:       830.76                 868.67                 902.98
 Force Cnst:      1.0113                 1.0763                 0.9309
 Red. Mass:       2.4869                 2.4210                 1.9377
 IR Intens:        4.911                  4.719                 27.074
 Frequency:       939.31                 953.86                 987.54
 Force Cnst:      0.7314                 0.9632                 1.1671
 Red. Mass:       1.4070                 1.7967                 2.0312
 IR Intens:        4.370                  2.331                  2.072
 Frequency:      1020.81                1056.61                1103.32
 Force Cnst:      1.7126                 1.2199                 1.0437
 Red. Mass:       2.7895                 1.8546                 1.4552
 IR Intens:       18.047                  3.971                 20.115
 Frequency:      1112.27                1168.51                1291.96
 Force Cnst:      0.9933                 1.0707                 1.3119
 Red. Mass:       1.3627                 1.3310                 1.3340
 IR Intens:       12.329                  0.139                  0.291
 Frequency:      1343.27                1360.65                1386.90
 Force Cnst:      1.8786                 2.1160                 2.6546
 Red. Mass:       1.7671                 1.9399                 2.3423
 IR Intens:       28.414                  6.878                  9.621
 Frequency:      1434.57                1500.68                1666.42
 Force Cnst:      3.5264                 5.1194                 9.8698
 Red. Mass:       2.9083                 3.8583                 6.0324
 IR Intens:       26.019                  4.251                  9.308
 Frequency:      3081.87                3120.92                3136.72
 Force Cnst:      6.0648                 6.2334                 6.3150
 Red. Mass:       1.0838                 1.0862                 1.0894
 IR Intens:       24.014                 10.115                 28.010
 Frequency:      3176.52                3193.00                3208.71
 Force Cnst:      6.4617                 6.5764                 6.6848
 Red. Mass:       1.0869                 1.0948                 1.1020
 IR Intens:        7.253                 27.813                 18.634

 STANDARD THERMODYNAMIC QUANTITIES AT   298.15 K  AND     1.00 ATM

   This Molecule has  1 Imaginary Frequencies
   Zero point vibrational energy:       63.056 kcal/mol

   Atom    1 Element C  Has Mass   12.00000
   Atom    2 Element C  Has Mass   12.00000
   Atom    3 Element C  Has Mass   12.00000
   Atom    4 Element C  Has Mass   12.00000
   Atom    5 Element C  Has Mass   12.00000
   Atom    6 Element N  Has Mass   14.00307
   Atom    7 Element H  Has Mass    1.00783
   Atom    8 Element H  Has Mass    1.00783
   Atom    9 Element H  Has Mass    1.00783
   Atom   10 Element H  Has Mass    1.00783
   Atom   11 Element H  Has Mass    1.00783
   Atom   12 Element C  Has Mass   12.00000
   Atom   13 Element H  Has Mass    1.00783
   Molecular Mass:    92.050050 amu
   Principal axes and moments of inertia in amu*Bohr^2:
                             1           2           3
    Eigenvalues --      369.31194   515.43599   762.26293
          X               0.91019    -0.13491     0.39160
          Y               0.17824     0.98102    -0.07632
          Z              -0.37387     0.13926     0.91697
   Rotational Symmetry Number is   1
   The Molecule is an Asymmetric Top
   Translational Enthalpy:        0.889 kcal/mol
   Rotational Enthalpy:           0.889 kcal/mol
   Vibrational Enthalpy:         64.542 kcal/mol
   gas constant (RT):             0.592 kcal/mol
   Translational Entropy:        39.471  cal/mol.K
   Rotational Entropy:           26.475  cal/mol.K
   Vibrational Entropy:           7.189  cal/mol.K

   Total Enthalpy:               66.912 kcal/mol
   Total Entropy:                73.136  cal/mol.K

 Total job time:  550.04s(wall), 548.44s(cpu)
        *  Thank you very much for using Q-Chem.  Have a nice day.  *
