 Q-Chem 5.0, Q-Chem, Inc., Pleasanton, CA (2017)
 Q-Chem 5.0.2 for Intel X86 EM64T Linux

User input:
--------------------------------------------------------------
$molecule
0 2
C        1.6819772115    0.4842555239   -0.3492597867
C        1.1589924081   -0.8435413589   -0.4744597036
C       -0.2581162249   -0.9762137347   -0.3994887033
C       -1.2440230062    0.6376212360    0.9389887612
C       -0.4947819096    1.1335871218   -0.2784319554
N        0.8393204173    1.4699189932   -0.2182422282
H        2.7476928875    0.6819545187   -0.4435667168
H        1.8223227758   -1.6642807607   -0.6995976802
H       -0.6473071056   -1.8120127607   -0.9795014283
H       -1.8689381432    1.2308315474    1.5928963370
H       -1.0797785699    1.7798284578   -0.9512383141
C       -1.1147472970   -0.6765902214    0.8295417137
H       -1.6027831594   -1.4634024367    1.3998291467
$end

$rem
method                b3lyp
basis                 6-31g(d)
unrestricted          true
symmetry              off
sym_ignore            true
incdft                false
incfock               0
scf_convergence       6
thresh                14
jobtype               sp
scf_guess             read
scf_algorithm         diis
max_scf_cycles        100
stability_analysis    true
max_cis_cycles        100
cis_n_roots           4
$end

--------------------------------------------------------------

             Standard Nuclear Orientation (Angstroms)
    I     Atom           X                Y                Z
 ----------------------------------------------------------------
    1      C       1.6819772115     0.4842555239    -0.3492597867
    2      C       1.1589924081    -0.8435413589    -0.4744597036
    3      C      -0.2581162249    -0.9762137347    -0.3994887033
    4      C      -1.2440230062     0.6376212360     0.9389887612
    5      C      -0.4947819096     1.1335871218    -0.2784319554
    6      N       0.8393204173     1.4699189932    -0.2182422282
    7      H       2.7476928875     0.6819545187    -0.4435667168
    8      H       1.8223227758    -1.6642807607    -0.6995976802
    9      H      -0.6473071056    -1.8120127607    -0.9795014283
   10      H      -1.8689381432     1.2308315474     1.5928963370
   11      H      -1.0797785699     1.7798284578    -0.9512383141
   12      C      -1.1147472970    -0.6765902214     0.8295417137
   13      H      -1.6027831594    -1.4634024367     1.3998291467
 ----------------------------------------------------------------

    2    -286.8341414927      4.00E-09 Convergence criterion met
 Total energy in the final basis set = -286.83414149

         TDDFT/TDA Excitation Energies
 ---------------------------------------------------

 Excited state   1: excitation energy (eV) =    1.6609
 Total energy for state  1:                  -286.77310469 au
    <S**2>     :  0.7905
    Trans. Mom.: -0.3129 X   0.0466 Y   0.1000 Z
    Strength   :     0.0044781478
    D( 24) --> S(  1) amplitude =  0.9753 beta

 Excited state   2: excitation energy (eV) =    2.9045
 Total energy for state  2:                  -286.72740476 au
    <S**2>     :  1.4129
    Trans. Mom.: -0.1735 X   0.2482 Y  -0.0013 Z
    Strength   :     0.0065230281
    D( 24) --> V(  1) amplitude =  0.2239 alpha
    S(  1) --> V(  1) amplitude =  0.8430 alpha
    D( 23) --> S(  1) amplitude = -0.1917 beta
    D( 24) --> V(  1) amplitude =  0.3336 beta

 Excited state   3: excitation energy (eV) =    3.3323
 Total energy for state  3:                  -286.71168207 au
    <S**2>     :  0.9219
    Trans. Mom.: -0.0176 X  -0.1562 Y  -0.0051 Z
    Strength   :     0.0020191417
    D( 24) --> V(  1) amplitude =  0.2282 alpha
    S(  1) --> V(  1) amplitude =  0.1790 alpha
    D( 22) --> S(  1) amplitude = -0.2801 beta
    D( 23) --> S(  1) amplitude =  0.8735 beta

 Excited state   4: excitation energy (eV) =    3.5475
 Total energy for state  4:                  -286.70377380 au
    <S**2>     :  1.6242
    Trans. Mom.:  0.2115 X   0.0249 Y  -0.0735 Z
    Strength   :     0.0044104723
    D( 24) --> V(  1) amplitude =  0.5034 alpha
    S(  1) --> V(  1) amplitude = -0.4109 alpha
    D( 22) --> S(  1) amplitude =  0.4808 beta
    D( 24) --> V(  1) amplitude =  0.5324 beta

 ---------------------------------------------------

                    Orbital Energies (a.u.)
 --------------------------------------------------------------

 Alpha MOs
 -- Occupied --
-14.340 -10.243 -10.224 -10.203 -10.198 -10.197 -10.192  -0.946
 -0.816  -0.765  -0.669  -0.638  -0.537  -0.533  -0.517  -0.463
 -0.441  -0.417  -0.400  -0.370  -0.340  -0.301  -0.280  -0.220
 -0.187

 Beta MOs
 -- Occupied --
-14.332 -10.238 -10.225 -10.201 -10.200 -10.193 -10.192  -0.932
 -0.811  -0.755  -0.664  -0.630  -0.532  -0.527  -0.512  -0.458
 -0.434  -0.408  -0.396  -0.361  -0.326  -0.281  -0.272  -0.210

          Ground-State Mulliken Net Atomic Charges

     Atom                 Charge (a.u.)    Spin (a.u.)
  --------------------------------------------------------
      1 C                     0.054554      -0.052193
      2 C                    -0.116128       0.432380
      3 C                    -0.223588      -0.143148
      4 C                    -0.085577      -0.042982
      5 C                    -0.055640       0.342651
      6 N                    -0.330087       0.338491
      7 H                     0.144386       0.001636
      8 H                     0.139483      -0.025601
      9 H                     0.130596       0.021572
     10 H                     0.141815       0.003487
     11 H                     0.154076       0.014522
     12 C                    -0.095799       0.089477
     13 H                     0.141910       0.019708
  --------------------------------------------------------
  Sum of atomic charges =    -0.000000

                    Cartesian Multipole Moments
 -----------------------------------------------------------------
    Charge (ESU x 10^10)
                 0.0000
    Dipole Moment (Debye)
         X      -0.5891      Y      -1.2260      Z       0.0849
       Tot       1.3629
    Quadrupole Moments (Debye-Ang)
        XX     -36.8243     XY      -2.5219     YY     -40.6916
        XZ      -1.9250     YZ       0.0981     ZZ     -41.2547

 Total job time:  87.41s(wall), 86.67s(cpu)
        *  Thank you very much for using Q-Chem.  Have a nice day.  *
