 Q-Chem 5.0, Q-Chem, Inc., Pleasanton, CA (2017)
 Q-Chem 5.0.2 for Intel X86 EM64T Linux

User input:
--------------------------------------------------------------
$molecule
0 2
C        1.6316925360    0.4907998443   -0.2369431323
C        1.1138847553   -0.8106107325   -0.4879154461
C       -0.3008548317   -0.9733479592   -0.4183922610
C       -1.2162709803    0.6628471478    0.9106635746
C       -0.5234319129    1.0983001125   -0.3385070600
N        0.7876532278    1.4963513839   -0.1949450592
H        2.6961039544    0.6910933742   -0.1223369540
H        1.7602304603   -1.5865032714   -0.8919828941
H       -0.7010902000   -1.7748781512   -1.0494521610
H       -1.5914534985    1.2905551443    1.7142355152
H       -1.0866809895    1.4922578174   -1.1882919946
C       -1.1145913412   -0.6625258752    0.8042865668
H       -1.5153608953   -1.4323827094    1.4670507479
$end

$rem
method                b3lyp
basis                 6-31+g(d,p)
unrestricted          true
symmetry              off
sym_ignore            true
incdft                false
incfock               0
scf_convergence       6
thresh                14
jobtype               sp
scf_guess             read
scf_algorithm         diis
max_scf_cycles        100
stability_analysis    true
max_cis_cycles        100
cis_n_roots           4
$end

--------------------------------------------------------------

             Standard Nuclear Orientation (Angstroms)
    I     Atom           X                Y                Z
 ----------------------------------------------------------------
    1      C       1.6316925360     0.4907998443    -0.2369431323
    2      C       1.1138847553    -0.8106107325    -0.4879154461
    3      C      -0.3008548317    -0.9733479592    -0.4183922610
    4      C      -1.2162709803     0.6628471478     0.9106635746
    5      C      -0.5234319129     1.0983001125    -0.3385070600
    6      N       0.7876532278     1.4963513839    -0.1949450592
    7      H       2.6961039544     0.6910933742    -0.1223369540
    8      H       1.7602304603    -1.5865032714    -0.8919828941
    9      H      -0.7010902000    -1.7748781512    -1.0494521610
   10      H      -1.5914534985     1.2905551443     1.7142355152
   11      H      -1.0866809895     1.4922578174    -1.1882919946
   12      C      -1.1145913412    -0.6625258752     0.8042865668
   13      H      -1.5153608953    -1.4323827094     1.4670507479
 ----------------------------------------------------------------

    2    -286.8682423527      4.63E-09 Convergence criterion met
 Total energy in the final basis set = -286.86824235

         TDDFT/TDA Excitation Energies
 ---------------------------------------------------

 Excited state   1: excitation energy (eV) =    2.1490
 Total energy for state  1:                  -286.78926912 au
    <S**2>     :  0.7877
    Trans. Mom.: -0.3044 X   0.0858 Y   0.0819 Z
    Strength   :     0.0056211941
    D( 24) --> S(  1) amplitude =  0.9695 beta

 Excited state   2: excitation energy (eV) =    3.1004
 Total energy for state  2:                  -286.75430364 au
    <S**2>     :  0.8897
    Trans. Mom.: -0.2184 X   0.1953 Y   0.0120 Z
    Strength   :     0.0065290386
    S(  1) --> V(  1) amplitude =  0.8079 alpha
    S(  1) --> V(  2) amplitude =  0.1774 alpha
    D( 22) --> S(  1) amplitude =  0.2319 beta
    D( 23) --> S(  1) amplitude =  0.4147 beta

 Excited state   3: excitation energy (eV) =    3.3618
 Total energy for state  3:                  -286.74469941 au
    <S**2>     :  0.8929
    Trans. Mom.:  0.0509 X  -0.0443 Y   0.0586 Z
    Strength   :     0.0006581997
    S(  1) --> V(  1) amplitude = -0.4207 alpha
    D( 23) --> S(  1) amplitude =  0.8700 beta

 Excited state   4: excitation energy (eV) =    3.7870
 Total energy for state  4:                  -286.72907408 au
    <S**2>     :  0.8655
    Trans. Mom.:  0.0025 X   0.0604 Y  -0.0768 Z
    Strength   :     0.0008854907
    S(  1) --> V(  1) amplitude = -0.2118 alpha
    S(  1) --> V(  2) amplitude =  0.7697 alpha
    D( 22) --> S(  1) amplitude =  0.5186 beta
    D( 23) --> S(  1) amplitude = -0.1864 beta

 ---------------------------------------------------

                    Orbital Energies (a.u.)
 --------------------------------------------------------------

 Alpha MOs
 -- Occupied --
-14.352 -10.254 -10.236 -10.213 -10.212 -10.211 -10.204  -0.962
 -0.833  -0.778  -0.677  -0.648  -0.551  -0.543  -0.525  -0.474
 -0.462  -0.423  -0.413  -0.384  -0.344  -0.322  -0.280  -0.248
 -0.195

 Beta MOs
 -- Occupied --
-14.345 -10.249 -10.237 -10.214 -10.211 -10.205 -10.204  -0.949
 -0.827  -0.767  -0.672  -0.640  -0.544  -0.539  -0.520  -0.468
 -0.455  -0.417  -0.408  -0.375  -0.329  -0.302  -0.275  -0.238

          Ground-State Mulliken Net Atomic Charges

     Atom                 Charge (a.u.)    Spin (a.u.)
  --------------------------------------------------------
      1 C                    -0.199204      -0.097693
      2 C                    -0.030310       0.498214
      3 C                    -0.142513      -0.110673
      4 C                    -0.113217      -0.052835
      5 C                    -0.156253       0.369544
      6 N                    -0.141181       0.315221
      7 H                     0.130706       0.001655
      8 H                     0.137222      -0.025965
      9 H                     0.123539       0.016440
     10 H                     0.138373       0.004622
     11 H                     0.157750       0.011826
     12 C                    -0.038373       0.043643
     13 H                     0.133463       0.026002
  --------------------------------------------------------
  Sum of atomic charges =    -0.000000

                    Cartesian Multipole Moments
 -----------------------------------------------------------------
    Charge (ESU x 10^10)
                -0.0000
    Dipole Moment (Debye)
         X      -0.4847      Y      -1.4482      Z      -0.1249
       Tot       1.5323
    Quadrupole Moments (Debye-Ang)
        XX     -39.1183     XY      -2.4444     YY     -43.3950
        XZ      -1.3008     YZ       0.4923     ZZ     -41.5516

 Total job time:  196.77s(wall), 194.58s(cpu)
        *  Thank you very much for using Q-Chem.  Have a nice day.  *
