 Q-Chem 5.0, Q-Chem, Inc., Pleasanton, CA (2017)
 Q-Chem 5.0.2 for Intel X86 EM64T Linux

User input:
--------------------------------------------------------------
$molecule
0 2
C        1.6316925360    0.4907998443   -0.2369431323
C        1.1138847553   -0.8106107325   -0.4879154461
C       -0.3008548317   -0.9733479592   -0.4183922610
C       -1.2162709803    0.6628471478    0.9106635746
C       -0.5234319129    1.0983001125   -0.3385070600
N        0.7876532278    1.4963513839   -0.1949450592
H        2.6961039544    0.6910933742   -0.1223369540
H        1.7602304603   -1.5865032714   -0.8919828941
H       -0.7010902000   -1.7748781512   -1.0494521610
H       -1.5914534985    1.2905551443    1.7142355152
H       -1.0866809895    1.4922578174   -1.1882919946
C       -1.1145913412   -0.6625258752    0.8042865668
H       -1.5153608953   -1.4323827094    1.4670507479
$end

$rem
method                b3lyp
basis                 6-31+g(d,p)
unrestricted          true
symmetry              off
sym_ignore            true
incdft                false
incfock               0
scf_convergence       8
thresh                14
jobtype               freq
scf_guess             read
scf_algorithm         diis
max_scf_cycles        100
$end

--------------------------------------------------------------

             Standard Nuclear Orientation (Angstroms)
    I     Atom           X                Y                Z
 ----------------------------------------------------------------
    1      C       1.6316925360     0.4907998443    -0.2369431323
    2      C       1.1138847553    -0.8106107325    -0.4879154461
    3      C      -0.3008548317    -0.9733479592    -0.4183922610
    4      C      -1.2162709803     0.6628471478     0.9106635746
    5      C      -0.5234319129     1.0983001125    -0.3385070600
    6      N       0.7876532278     1.4963513839    -0.1949450592
    7      H       2.6961039544     0.6910933742    -0.1223369540
    8      H       1.7602304603    -1.5865032714    -0.8919828941
    9      H      -0.7010902000    -1.7748781512    -1.0494521610
   10      H      -1.5914534985     1.2905551443     1.7142355152
   11      H      -1.0866809895     1.4922578174    -1.1882919946
   12      C      -1.1145913412    -0.6625258752     0.8042865668
   13      H      -1.5153608953    -1.4323827094     1.4670507479
 ----------------------------------------------------------------

    2    -286.8682423526      2.20E-09 Convergence criterion met
 Total energy in the final basis set = -286.86824235

                    Orbital Energies (a.u.)
 --------------------------------------------------------------

 Alpha MOs
 -- Occupied --
-14.352 -10.254 -10.236 -10.213 -10.212 -10.211 -10.204  -0.962
 -0.833  -0.778  -0.677  -0.648  -0.551  -0.543  -0.525  -0.474
 -0.462  -0.423  -0.413  -0.384  -0.344  -0.322  -0.280  -0.248
 -0.195

 Beta MOs
 -- Occupied --
-14.345 -10.249 -10.237 -10.214 -10.211 -10.205 -10.204  -0.949
 -0.827  -0.767  -0.672  -0.640  -0.544  -0.539  -0.520  -0.468
 -0.455  -0.417  -0.408  -0.375  -0.329  -0.302  -0.275  -0.238

          Ground-State Mulliken Net Atomic Charges

     Atom                 Charge (a.u.)    Spin (a.u.)
  --------------------------------------------------------
      1 C                    -0.199204      -0.097693
      2 C                    -0.030310       0.498215
      3 C                    -0.142513      -0.110674
      4 C                    -0.113217      -0.052841
      5 C                    -0.156253       0.369545
      6 N                    -0.141181       0.315220
      7 H                     0.130706       0.001655
      8 H                     0.137222      -0.025965
      9 H                     0.123539       0.016440
     10 H                     0.138373       0.004623
     11 H                     0.157749       0.011826
     12 C                    -0.038373       0.043648
     13 H                     0.133463       0.026001
  --------------------------------------------------------
  Sum of atomic charges =    -0.000000

                    Cartesian Multipole Moments
 -----------------------------------------------------------------
    Charge (ESU x 10^10)
                 0.0000
    Dipole Moment (Debye)
         X      -0.4847      Y      -1.4482      Z      -0.1249
       Tot       1.5323
    Quadrupole Moments (Debye-Ang)
        XX     -39.1183     XY      -2.4444     YY     -43.3950
        XZ      -1.3008     YZ       0.4923     ZZ     -41.5516

 Frequency:      -617.02                 238.63                 306.23
 Force Cnst:      0.9084                 0.0967                 0.1712
 Red. Mass:       4.0498                 2.8818                 3.0984
 IR Intens:       15.667                  0.914                  6.444
 Frequency:       442.85                 532.39                 570.76
 Force Cnst:      0.3253                 0.4469                 0.7140
 Red. Mass:       2.8156                 2.6762                 3.7202
 IR Intens:        5.320                  7.528                 12.299
 Frequency:       687.35                 722.83                 761.76
 Force Cnst:      0.4770                 0.4964                 0.5540
 Red. Mass:       1.7134                 1.6125                 1.6205
 IR Intens:       13.731                 44.396                 65.649
 Frequency:       833.35                 870.65                 904.98
 Force Cnst:      1.0242                 1.0958                 0.9378
 Red. Mass:       2.5031                 2.4535                 1.9435
 IR Intens:        5.393                  4.657                 26.898
 Frequency:       943.08                 958.06                 989.51
 Force Cnst:      0.7434                 0.9457                 1.1535
 Red. Mass:       1.4186                 1.7487                 1.9995
 IR Intens:        4.177                  2.097                  2.543
 Frequency:      1023.25                1059.88                1106.28
 Force Cnst:      1.7176                 1.2311                 1.0190
 Red. Mass:       2.7843                 1.8601                 1.4132
 IR Intens:       17.625                  3.713                 18.646
 Frequency:      1115.17                1171.89                1294.98
 Force Cnst:      1.0202                 1.0697                 1.3213
 Red. Mass:       1.3923                 1.3221                 1.3372
 IR Intens:       14.238                  0.130                  0.307
 Frequency:      1346.71                1364.20                1391.79
 Force Cnst:      1.8927                 2.0974                 2.6086
 Red. Mass:       1.7713                 1.9128                 2.2857
 IR Intens:       29.281                  6.373                  9.959
 Frequency:      1440.67                1509.11                1675.17
 Force Cnst:      3.7160                 5.2416                10.0377
 Red. Mass:       3.0388                 3.9064                 6.0711
 IR Intens:       24.809                  4.739                  9.412
 Frequency:      3074.61                3115.87                3128.95
 Force Cnst:      6.0362                 6.2130                 6.2842
 Red. Mass:       1.0838                 1.0862                 1.0894
 IR Intens:       24.474                 10.619                 27.851
 Frequency:      3167.31                3186.15                3202.01
 Force Cnst:      6.4284                 6.5437                 6.6579
 Red. Mass:       1.0876                 1.0941                 1.1022
 IR Intens:       10.726                 25.471                 18.840

 STANDARD THERMODYNAMIC QUANTITIES AT   298.15 K  AND     1.00 ATM

   This Molecule has  1 Imaginary Frequencies
   Zero point vibrational energy:       63.096 kcal/mol

   Atom    1 Element C  Has Mass   12.00000
   Atom    2 Element C  Has Mass   12.00000
   Atom    3 Element C  Has Mass   12.00000
   Atom    4 Element C  Has Mass   12.00000
   Atom    5 Element C  Has Mass   12.00000
   Atom    6 Element N  Has Mass   14.00307
   Atom    7 Element H  Has Mass    1.00783
   Atom    8 Element H  Has Mass    1.00783
   Atom    9 Element H  Has Mass    1.00783
   Atom   10 Element H  Has Mass    1.00783
   Atom   11 Element H  Has Mass    1.00783
   Atom   12 Element C  Has Mass   12.00000
   Atom   13 Element H  Has Mass    1.00783
   Molecular Mass:    92.050050 amu
   Principal axes and moments of inertia in amu*Bohr^2:
                             1           2           3
    Eigenvalues --      369.88840   513.89378   761.71405
          X               0.90946    -0.14028     0.39141
          Y               0.18396     0.97998    -0.07621
          Z              -0.37288     0.14131     0.91705
   Rotational Symmetry Number is   1
   The Molecule is an Asymmetric Top
   Translational Enthalpy:        0.889 kcal/mol
   Rotational Enthalpy:           0.889 kcal/mol
   Vibrational Enthalpy:         64.580 kcal/mol
   gas constant (RT):             0.592 kcal/mol
   Translational Entropy:        39.471  cal/mol.K
   Rotational Entropy:           26.473  cal/mol.K
   Vibrational Entropy:           7.188  cal/mol.K

   Total Enthalpy:               66.950 kcal/mol
   Total Entropy:                73.132  cal/mol.K

 Total job time:  553.59s(wall), 550.85s(cpu)
        *  Thank you very much for using Q-Chem.  Have a nice day.  *
