 Q-Chem 5.0, Q-Chem, Inc., Pleasanton, CA (2017)
 Q-Chem 5.0.2 for Intel X86 EM64T Linux

User input:
--------------------------------------------------------------
$molecule
0 2
C        0.5834227387   -0.0295118183    0.2246755724
C        0.8499611948   -1.2507882536   -0.6494587839
C        0.7067891058   -2.5022121179   -0.2790636509
C       -1.3117332323    1.2496864162    0.5152323790
C       -0.3048588052    1.9191375635   -0.3230569523
N        0.7635620970    1.2228600193   -0.5248651974
H        1.3365705530   -0.0167249451    1.0299500081
H        1.2016199314   -1.0141406205   -1.6597866528
H        0.8440872830   -3.4866305819   -0.7048781490
H       -2.2772839845    1.6570235294    0.7907566074
H       -0.4151748331    2.9115924119   -0.7557186361
C       -0.7922409369    0.0505034079    0.8419500111
H       -1.2390682415   -0.7355043393    1.4379488468
$end

$rem
method                b3lyp
basis                 6-31+g(d,p)
unrestricted          true
symmetry              off
sym_ignore            true
incdft                false
incfock               0
scf_convergence       8
thresh                14
jobtype               opt
scf_guess             read
scf_algorithm         diis
max_scf_cycles        100
geom_opt_max_cycles   300
$end

--------------------------------------------------------------

   14    -286.8730764095      7.42E-09 Convergence criterion met
 Total energy in the final basis set = -286.87307641
   12    -286.8731211554      8.01E-09 Convergence criterion met
 Total energy in the final basis set = -286.87312116
   14    -286.8717832240      3.90E-09 Convergence criterion met
 Total energy in the final basis set = -286.87178322
   13    -286.8733376687      9.15E-09 Convergence criterion met
 Total energy in the final basis set = -286.87333767
   13    -286.8736891231      7.87E-09 Convergence criterion met
 Total energy in the final basis set = -286.87368912
   13    -286.8738907388      7.29E-09 Convergence criterion met
 Total energy in the final basis set = -286.87389074
   13    -286.8743155417      7.60E-09 Convergence criterion met
 Total energy in the final basis set = -286.87431554
   13    -286.8746621242      8.89E-09 Convergence criterion met
 Total energy in the final basis set = -286.87466212
   13    -286.8748508211      8.86E-09 Convergence criterion met
 Total energy in the final basis set = -286.87485082
   13    -286.8748713368      2.43E-09 Convergence criterion met
 Total energy in the final basis set = -286.87487134
   11    -286.8748800300      5.11E-09 Convergence criterion met
 Total energy in the final basis set = -286.87488003

             Standard Nuclear Orientation (Angstroms)
    I     Atom           X                Y                Z
 ----------------------------------------------------------------
    1      C       0.6552483855     0.0186644134     0.2488231695
    2      C       0.9865456353    -1.2307268586    -0.5459038408
    3      C       0.2965951904    -2.3485195959    -0.5434891123
    4      C      -1.3188876197     1.1660489701     0.5308409470
    5      C      -0.4160033824     1.8328884435    -0.4193630256
    6      N       0.6998581993     1.2125234831    -0.6147879876
    7      H       1.4526033137     0.1576549668     0.9999407074
    8      H       1.8898514150    -1.1412958813    -1.1602863558
    9      H       0.3539401302    -3.3229616798    -1.0098209723
   10      H      -2.2997170844     1.5199246897     0.8260089084
   11      H      -0.6326877931     2.7677045665    -0.9329356259
   12      C      -0.6849007738     0.0478852660     0.9349138754
   13      H      -1.0367927457    -0.7045001120     1.6297447150
 ----------------------------------------------------------------

   11    -286.8748804408      6.97E-09 Convergence criterion met
 Total energy in the final basis set = -286.87488044
 Final energy is   -286.874880440774
 **  OPTIMIZATION CONVERGED  **

                    Orbital Energies (a.u.)
 --------------------------------------------------------------

 Alpha MOs
 -- Occupied --
-14.336 -10.239 -10.235 -10.222 -10.215 -10.213 -10.208  -0.956
 -0.803  -0.776  -0.715  -0.606  -0.566  -0.547  -0.517  -0.478
 -0.458  -0.417  -0.408  -0.381  -0.337  -0.286  -0.278  -0.266
 -0.245

 Beta MOs
 -- Occupied --
-14.336 -10.238 -10.235 -10.217 -10.213 -10.208 -10.207  -0.955
 -0.794  -0.775  -0.704  -0.597  -0.565  -0.539  -0.514  -0.467
 -0.453  -0.415  -0.407  -0.376  -0.335  -0.280  -0.274  -0.264

          Ground-State Mulliken Net Atomic Charges

     Atom                 Charge (a.u.)    Spin (a.u.)
  --------------------------------------------------------
      1 C                    -0.036386       0.083262
      2 C                    -0.112836      -0.310974
      3 C                    -0.223889       1.162049
      4 C                     0.032411      -0.030249
      5 C                    -0.149372       0.014390
      6 N                    -0.207372      -0.004085
      7 H                     0.178520      -0.004902
      8 H                     0.159138       0.078726
      9 H                     0.154800       0.008723
     10 H                     0.134543       0.000247
     11 H                     0.131668      -0.000080
     12 C                    -0.207077       0.002912
     13 H                     0.145853      -0.000020
  --------------------------------------------------------
  Sum of atomic charges =     0.000000

                    Cartesian Multipole Moments
 -----------------------------------------------------------------
    Charge (ESU x 10^10)
                 0.0000
    Dipole Moment (Debye)
         X      -1.0071      Y      -0.5631      Z       1.0801
       Tot       1.5805
    Quadrupole Moments (Debye-Ang)
        XX     -40.8078     XY      -4.8523     YY     -38.5817
        XZ       0.0634     YZ       1.8144     ZZ     -42.5962

 Total job time:  281.23s(wall), 951.31s(cpu)
        *  Thank you very much for using Q-Chem.  Have a nice day.  *
