 Q-Chem 5.0, Q-Chem, Inc., Pleasanton, CA (2017)
 Q-Chem 5.0.2 for Intel X86 EM64T Linux

User input:
--------------------------------------------------------------
$molecule
0 2
C        0.5858571679   -0.0330371068    0.2406904452
C        0.8271227805   -1.2496449176   -0.6504958050
C        0.7668773048   -2.4996108904   -0.2579918086
C       -1.3099222646    1.2517377402    0.5002193020
C       -0.2844451446    1.9163148678   -0.3185843456
N        0.7874998005    1.2225018772   -0.4991511003
H        1.3309318193   -0.0428711435    1.0521560137
H        1.0675515572   -1.0063435902   -1.6913914663
H        0.8974958539   -3.4791052438   -0.6991635327
H       -2.2788433693    1.6637830810    0.7586592878
H       -0.3876965091    2.9094170082   -0.7543724116
C       -0.7995991612    0.0543137503    0.8374678093
H       -1.2571769802   -0.7321647468    1.4256430232
$end

$rem
method                b3lyp
basis                 6-31g(d)
unrestricted          true
symmetry              off
sym_ignore            true
incdft                false
incfock               0
scf_convergence       6
thresh                14
jobtype               sp
scf_guess             read
scf_algorithm         diis
max_scf_cycles        100
stability_analysis    true
max_cis_cycles        100
cis_n_roots           4
$end

--------------------------------------------------------------

             Standard Nuclear Orientation (Angstroms)
    I     Atom           X                Y                Z
 ----------------------------------------------------------------
    1      C       0.5858571679    -0.0330371068     0.2406904452
    2      C       0.8271227805    -1.2496449176    -0.6504958050
    3      C       0.7668773048    -2.4996108904    -0.2579918086
    4      C      -1.3099222646     1.2517377402     0.5002193020
    5      C      -0.2844451446     1.9163148678    -0.3185843456
    6      N       0.7874998005     1.2225018772    -0.4991511003
    7      H       1.3309318193    -0.0428711435     1.0521560137
    8      H       1.0675515572    -1.0063435902    -1.6913914663
    9      H       0.8974958539    -3.4791052438    -0.6991635327
   10      H      -2.2788433693     1.6637830810     0.7586592878
   11      H      -0.3876965091     2.9094170082    -0.7543724116
   12      C      -0.7995991612     0.0543137503     0.8374678093
   13      H      -1.2571769802    -0.7321647468     1.4256430232
 ----------------------------------------------------------------

    2    -286.8484293939      5.14E-10 Convergence criterion met
 Total energy in the final basis set = -286.84842939

         TDDFT/TDA Excitation Energies
 ---------------------------------------------------

 Excited state   1: excitation energy (eV) =    2.9442
 Total energy for state  1:                  -286.74023182 au
    <S**2>     :  0.7677
    Trans. Mom.: -0.0961 X  -0.0229 Y  -0.0260 Z
    Strength   :     0.0007529155
    D( 22) --> S(  1) amplitude =  0.4636 beta
    D( 23) --> S(  1) amplitude =  0.4977 beta
    D( 24) --> S(  1) amplitude =  0.7083 beta

 Excited state   2: excitation energy (eV) =    3.4038
 Total energy for state  2:                  -286.72334061 au
    <S**2>     :  2.6912
    Trans. Mom.:  0.0043 X  -0.0002 Y   0.0036 Z
    Strength   :     0.0000026300
    D( 24) --> V(  1) amplitude = -0.6170 alpha
    S(  1) --> V(  1) amplitude =  0.1997 alpha
    D( 23) --> S(  1) amplitude = -0.1604 beta
    D( 23) --> V(  1) amplitude = -0.2810 beta
    D( 24) --> V(  1) amplitude =  0.5913 beta

 Excited state   3: excitation energy (eV) =    4.1134
 Total energy for state  3:                  -286.69726637 au
    <S**2>     :  2.4892
    Trans. Mom.:  0.0040 X  -0.0085 Y   0.0002 Z
    Strength   :     0.0000089988
    D( 23) --> V(  1) amplitude =  0.5755 alpha
    D( 24) --> V(  1) amplitude =  0.1501 alpha
    S(  1) --> V(  1) amplitude =  0.1505 alpha
    D( 22) --> S(  1) amplitude =  0.2439 beta
    D( 22) --> V(  1) amplitude =  0.4458 beta
    D( 23) --> S(  1) amplitude = -0.3131 beta
    D( 23) --> V(  1) amplitude = -0.4218 beta
    D( 24) --> V(  1) amplitude = -0.1664 beta

 Excited state   4: excitation energy (eV) =    4.1611
 Total energy for state  4:                  -286.69551014 au
    <S**2>     :  0.8636
    Trans. Mom.:  0.0302 X  -0.0778 Y   0.0178 Z
    Strength   :     0.0007424819
    D( 22) --> S(  1) amplitude = -0.4500 beta
    D( 23) --> S(  1) amplitude = -0.5102 beta
    D( 24) --> S(  1) amplitude =  0.6806 beta

 ---------------------------------------------------

                    Orbital Energies (a.u.)
 --------------------------------------------------------------

 Alpha MOs
 -- Occupied --
-14.321 -10.227 -10.225 -10.208 -10.202 -10.202 -10.197  -0.944
 -0.790  -0.766  -0.704  -0.591  -0.557  -0.544  -0.508  -0.470
 -0.442  -0.404  -0.397  -0.376  -0.328  -0.273  -0.266  -0.252
 -0.235

 Beta MOs
 -- Occupied --
-14.321 -10.226 -10.225 -10.204 -10.202 -10.197 -10.193  -0.943
 -0.781  -0.764  -0.693  -0.583  -0.556  -0.534  -0.507  -0.461
 -0.434  -0.403  -0.394  -0.373  -0.326  -0.268  -0.264  -0.248

          Ground-State Mulliken Net Atomic Charges

     Atom                 Charge (a.u.)    Spin (a.u.)
  --------------------------------------------------------
      1 C                    -0.060346       0.040965
      2 C                    -0.119778      -0.172378
      3 C                    -0.202724       1.051349
      4 C                    -0.142513       0.004749
      5 C                     0.053083       0.000335
      6 N                    -0.388010       0.001591
      7 H                     0.191078      -0.003911
      8 H                     0.173283       0.079529
      9 H                     0.165471       0.001002
     10 H                     0.140488      -0.000259
     11 H                     0.143957       0.000432
     12 C                    -0.106793      -0.003760
     13 H                     0.152805       0.000356
  --------------------------------------------------------
  Sum of atomic charges =     0.000000

                    Cartesian Multipole Moments
 -----------------------------------------------------------------
    Charge (ESU x 10^10)
                 0.0000
    Dipole Moment (Debye)
         X      -1.4704      Y      -0.5039      Z       0.6028
       Tot       1.6671
    Quadrupole Moments (Debye-Ang)
        XX     -41.4413     XY      -4.1005     YY     -36.8512
        XZ      -0.1209     YZ       1.5377     ZZ     -40.0539

 Total job time:  100.63s(wall), 87.18s(cpu)
        *  Thank you very much for using Q-Chem.  Have a nice day.  *
