 Q-Chem 5.0, Q-Chem, Inc., Pleasanton, CA (2017)
 Q-Chem 5.0.2 for Intel X86 EM64T Linux

User input:
--------------------------------------------------------------
$molecule
0 2
C        0.9327496154    0.1509550163    0.3465291766
C        1.0644469533   -1.1312007005   -0.4808630164
C       -0.0170161168   -1.8760574933   -0.5483727795
C       -1.3089864745    0.8903444688    0.3793148352
C       -0.4340963717    1.7272872441   -0.4210101310
N        0.8000649916    1.3722995682   -0.4503065900
H        1.8626320430    0.2877496458    0.9326189468
H        2.0159680678   -1.3982731507   -0.9467818467
H       -0.3249545460   -2.8041374809   -1.0187684640
H       -2.3946049199    0.9555296561    0.3880385520
H       -0.7750245053    2.6431793825   -0.9081502615
C       -0.5397235176   -0.0597518050    0.9828695796
H       -0.9358023642   -0.7826336659    1.6885674101
$end

$rem
method                b3lyp
basis                 6-31g(d)
unrestricted          true
symmetry              off
sym_ignore            true
incdft                false
incfock               0
scf_convergence       8
thresh                14
jobtype               ts
scf_guess             read
scf_algorithm         diis
max_scf_cycles        100
geom_opt_max_cycles   500
geom_opt_dmax         100
geom_opt_tol_gradient 10
geom_opt_hessian      read
$end

--------------------------------------------------------------

    2    -286.8279571125      1.40E-09 Convergence criterion met
 Total energy in the final basis set = -286.82795711
   14    -286.8294696411      8.62E-09 Convergence criterion met
 Total energy in the final basis set = -286.82946964
   15    -286.8311814257      6.51E-09 Convergence criterion met
 Total energy in the final basis set = -286.83118143
   15    -286.8327557837      6.39E-09 Convergence criterion met
 Total energy in the final basis set = -286.83275578
   15    -286.8341788097      6.08E-09 Convergence criterion met
 Total energy in the final basis set = -286.83417881
   15    -286.8354287734      5.50E-09 Convergence criterion met
 Total energy in the final basis set = -286.83542877
   15    -286.8365145295      4.89E-09 Convergence criterion met
 Total energy in the final basis set = -286.83651453
   15    -286.8374476821      4.25E-09 Convergence criterion met
   10    -286.8484298842      8.04E-09 Convergence criterion met
 Total energy in the final basis set = -286.84842988
   12    -286.8484280280      6.15E-09 Convergence criterion met
 Total energy in the final basis set = -286.84842803
   12    -286.8484295064      4.15E-09 Convergence criterion met
 Total energy in the final basis set = -286.84842951
   11    -286.8484294547      3.84E-09 Convergence criterion met
 Total energy in the final basis set = -286.84842945
   10    -286.8484293916      4.94E-09 Convergence criterion met
 Total energy in the final basis set = -286.84842939
   10    -286.8484293853      7.52E-09 Convergence criterion met
 Total energy in the final basis set = -286.84842939

             Standard Nuclear Orientation (Angstroms)
    I     Atom           X                Y                Z
 ----------------------------------------------------------------
    1      C       0.5858571679    -0.0330371068     0.2406904452
    2      C       0.8271227805    -1.2496449176    -0.6504958050
    3      C       0.7668773048    -2.4996108904    -0.2579918086
    4      C      -1.3099222646     1.2517377402     0.5002193020
    5      C      -0.2844451446     1.9163148678    -0.3185843456
    6      N       0.7874998005     1.2225018772    -0.4991511003
    7      H       1.3309318193    -0.0428711435     1.0521560137
    8      H       1.0675515572    -1.0063435902    -1.6913914663
    9      H       0.8974958539    -3.4791052438    -0.6991635327
   10      H      -2.2788433693     1.6637830810     0.7586592878
   11      H      -0.3876965091     2.9094170082    -0.7543724116
   12      C      -0.7995991612     0.0543137503     0.8374678093
   13      H      -1.2571769802    -0.7321647468     1.4256430232
 ----------------------------------------------------------------

   10    -286.8484293939      3.50E-09 Convergence criterion met
 Total energy in the final basis set = -286.84842939
 Final energy is   -286.848429393881
 **  OPTIMIZATION CONVERGED  **

                    Orbital Energies (a.u.)
 --------------------------------------------------------------

 Alpha MOs
 -- Occupied --
-14.321 -10.227 -10.225 -10.208 -10.202 -10.202 -10.197  -0.944
 -0.790  -0.766  -0.704  -0.591  -0.557  -0.544  -0.508  -0.470
 -0.442  -0.404  -0.397  -0.376  -0.328  -0.273  -0.266  -0.252
 -0.235

 Beta MOs
 -- Occupied --
-14.321 -10.226 -10.225 -10.204 -10.202 -10.197 -10.193  -0.943
 -0.781  -0.764  -0.693  -0.583  -0.556  -0.534  -0.507  -0.461
 -0.434  -0.403  -0.394  -0.373  -0.326  -0.268  -0.264  -0.248

          Ground-State Mulliken Net Atomic Charges

     Atom                 Charge (a.u.)    Spin (a.u.)
  --------------------------------------------------------
      1 C                    -0.060346       0.040965
      2 C                    -0.119778      -0.172378
      3 C                    -0.202724       1.051349
      4 C                    -0.142513       0.004750
      5 C                     0.053083       0.000334
      6 N                    -0.388010       0.001591
      7 H                     0.191078      -0.003911
      8 H                     0.173283       0.079529
      9 H                     0.165471       0.001002
     10 H                     0.140488      -0.000259
     11 H                     0.143957       0.000432
     12 C                    -0.106793      -0.003760
     13 H                     0.152805       0.000356
  --------------------------------------------------------
  Sum of atomic charges =    -0.000000

                    Cartesian Multipole Moments
 -----------------------------------------------------------------
    Charge (ESU x 10^10)
                -0.0000
    Dipole Moment (Debye)
         X      -1.4704      Y      -0.5039      Z       0.6028
       Tot       1.6671
    Quadrupole Moments (Debye-Ang)
        XX     -41.4413     XY      -4.1005     YY     -36.8512
        XZ      -0.1209     YZ       1.5377     ZZ     -40.0539

 Total job time:  729.60s(wall), 1959.37s(cpu)
        *  Thank you very much for using Q-Chem.  Have a nice day.  *
