 Q-Chem 5.0, Q-Chem, Inc., Pleasanton, CA (2017)
 Q-Chem 5.0.2 for Intel X86 EM64T Linux

User input:
--------------------------------------------------------------
$molecule
0 2
C        0.6975230609    0.0035034801    0.1579725008
C        0.8872090484   -1.1652138069   -0.7916650795
C        0.1792994775   -2.2697528265   -0.7931868846
C       -1.2093033961    1.0981960084    0.8277710078
C       -0.4543230376    1.8540123893   -0.1824741799
N        0.6204261766    1.2698471106   -0.5926437345
H        1.6021902805    0.0762767849    0.7871759356
H        1.6957925352   -1.0192535395   -1.5174524067
H        0.1568488679   -3.1931177704   -1.3582031229
H       -2.1354587580    1.4141570636    1.2945934937
H       -0.7456434186    2.8278735175   -0.5744136134
C       -0.5250907098   -0.0411306332    1.0355666745
H       -0.7694701269   -0.8553977780    1.7069594090
$end

$rem
method                b3lyp
basis                 6-31g(d)
unrestricted          true
symmetry              off
sym_ignore            true
incdft                false
incfock               0
scf_convergence       8
thresh                14
jobtype               opt
scf_guess             read
scf_algorithm         diis
max_scf_cycles        100
geom_opt_tol_gradient 600
geom_opt_tol_displacement 2400
geom_opt_tol_energy   200
geom_opt_max_cycles   100
$end

--------------------------------------------------------------

    2    -286.8505356535      1.84E-09 Convergence criterion met
 Total energy in the final basis set = -286.85053565

             Standard Nuclear Orientation (Angstroms)
    I     Atom           X                Y                Z
 ----------------------------------------------------------------
    1      C       0.6989418490     0.0034296779     0.1591628503
    2      C       0.8882501837    -1.1649876572    -0.7908507914
    3      C       0.1779849726    -2.2681394424    -0.7942030418
    4      C      -1.2100029804     1.0968855917     0.8268775083
    5      C      -0.4546650689     1.8523427844    -0.1834417057
    6      N       0.6209958966     1.2691278532    -0.5923429197
    7      H       1.6034669340     0.0770747541     0.7886398676
    8      H       1.6962330079    -1.0188465264    -1.5172046036
    9      H       0.1533747151    -3.1907715730    -1.3602775084
   10      H      -2.1364600716     1.4131731397     1.2928202960
   11      H      -0.7462702222     2.8259809871    -0.5757866539
   12      C      -0.5239276296    -0.0408789594     1.0370675816
   13      H      -0.7679215863    -0.8543906298     1.7095391206
 ----------------------------------------------------------------

   10    -286.8505366493      4.43E-09 Convergence criterion met
 Total energy in the final basis set = -286.85053665
 Final energy is   -286.850536649280
 **  OPTIMIZATION CONVERGED  **

                    Orbital Energies (a.u.)
 --------------------------------------------------------------

 Alpha MOs
 -- Occupied --
-14.321 -10.227 -10.224 -10.209 -10.202 -10.201 -10.196  -0.943
 -0.790  -0.765  -0.704  -0.595  -0.556  -0.537  -0.507  -0.468
 -0.446  -0.405  -0.398  -0.370  -0.326  -0.274  -0.265  -0.254
 -0.234

 Beta MOs
 -- Occupied --
-14.321 -10.226 -10.224 -10.204 -10.201 -10.196 -10.193  -0.943
 -0.782  -0.764  -0.693  -0.587  -0.555  -0.529  -0.504  -0.457
 -0.441  -0.403  -0.397  -0.365  -0.324  -0.268  -0.261  -0.252

          Ground-State Mulliken Net Atomic Charges

     Atom                 Charge (a.u.)    Spin (a.u.)
  --------------------------------------------------------
      1 C                    -0.069236       0.042894
      2 C                    -0.103039      -0.167471
      3 C                    -0.198629       1.040413
      4 C                    -0.142505       0.000178
      5 C                     0.055684       0.004856
      6 N                    -0.377669      -0.003582
      7 H                     0.181065      -0.004373
      8 H                     0.164014       0.078680
      9 H                     0.163966       0.004908
     10 H                     0.140173       0.000142
     11 H                     0.143568      -0.000142
     12 C                    -0.110578       0.003026
     13 H                     0.153186       0.000471
  --------------------------------------------------------
  Sum of atomic charges =     0.000000

                    Cartesian Multipole Moments
 -----------------------------------------------------------------
    Charge (ESU x 10^10)
                -0.0000
    Dipole Moment (Debye)
         X      -0.7699      Y      -0.6974      Z       1.1019
       Tot       1.5144
    Quadrupole Moments (Debye-Ang)
        XX     -39.4472     XY      -3.9774     YY     -37.8147
        XZ      -0.5332     YZ       2.5246     ZZ     -40.4581

 Total job time:  11.60s(wall), 44.14s(cpu)
        *  Thank you very much for using Q-Chem.  Have a nice day.  *
