 Q-Chem 5.0, Q-Chem, Inc., Pleasanton, CA (2017)
 Q-Chem 5.0.2 for Intel X86 EM64T Linux

User input:
--------------------------------------------------------------
$molecule
0 2
C        1.5870652534    0.3115518464    0.1267216970
C        1.0215815176   -0.9083749137    0.2855610216
C       -0.4329636366   -1.0944262623    0.1727617238
C       -1.2410022657    0.2902820537    0.0321549352
C       -0.4009609007    1.4970703397    0.1630320294
N        0.8875236918    1.5238103250    0.1176442601
H        2.6680848805    0.4248334914    0.1289018472
H        1.6433408653   -1.7754195058    0.4940218413
H       -0.9035079651   -1.8892285098    0.7524279463
H       -2.2274361209    0.3356255424    0.4971265749
H       -0.9119776441    2.4430759432    0.3566101985
C       -1.0653034798   -0.6536244720   -1.0737404309
H       -0.6244441963   -0.5051758780   -2.0532236450
$end

$rem
method                b3lyp
basis                 6-31g(d)
unrestricted          true
symmetry              off
sym_ignore            true
incdft                false
incfock               0
scf_convergence       8
thresh                14
jobtype               opt
scf_guess             read
scf_algorithm         diis
max_scf_cycles        100
geom_opt_tol_gradient 600
geom_opt_tol_displacement 2400
geom_opt_tol_energy   200
geom_opt_max_cycles   100
$end

--------------------------------------------------------------

    2    -286.8568459332      6.78E-10 Convergence criterion met
 Total energy in the final basis set = -286.85684593

             Standard Nuclear Orientation (Angstroms)
    I     Atom           X                Y                Z
 ----------------------------------------------------------------
    1      C       1.5870922349     0.3115604952     0.1270622344
    2      C       1.0216973530    -0.9083643850     0.2852619998
    3      C      -0.4326742195    -1.0946927329     0.1723535218
    4      C      -1.2406018762     0.2900486077     0.0321669063
    5      C      -0.4008943529     1.4972131616     0.1614605197
    6      N       0.8875884645     1.5238814988     0.1177335674
    7      H       2.6680929814     0.4249158973     0.1305925363
    8      H       1.6435308522    -1.7753129371     0.4939678359
    9      H      -0.9030215950    -1.8894934308     0.7522986903
   10      H      -2.2267824418     0.3360892631     0.4975376048
   11      H      -0.9119774353     2.4428661684     0.3566098847
   12      C      -1.0662002696    -0.6536053051    -1.0736765201
   13      H      -0.6258496961    -0.5051063010    -2.0533687818
 ----------------------------------------------------------------

   10    -286.8568466570      4.40E-09 Convergence criterion met
 Total energy in the final basis set = -286.85684666
 Final energy is   -286.856846657027
 **  OPTIMIZATION CONVERGED  **

                    Orbital Energies (a.u.)
 --------------------------------------------------------------

 Alpha MOs
 -- Occupied --
-14.325 -10.231 -10.222 -10.222 -10.219 -10.210 -10.195  -0.937
 -0.869  -0.766  -0.663  -0.639  -0.583  -0.522  -0.498  -0.486
 -0.442  -0.427  -0.381  -0.375  -0.358  -0.299  -0.254  -0.238
 -0.220

 Beta MOs
 -- Occupied --
-14.324 -10.230 -10.222 -10.219 -10.209 -10.208 -10.195  -0.934
 -0.860  -0.764  -0.655  -0.637  -0.569  -0.516  -0.493  -0.481
 -0.437  -0.424  -0.377  -0.372  -0.351  -0.291  -0.250  -0.227

          Ground-State Mulliken Net Atomic Charges

     Atom                 Charge (a.u.)    Spin (a.u.)
  --------------------------------------------------------
      1 C                    -0.015692       0.044517
      2 C                    -0.092976      -0.010996
      3 C                    -0.177736      -0.036762
      4 C                    -0.200869      -0.046169
      5 C                     0.083469       0.048966
      6 N                    -0.392329       0.010674
      7 H                     0.137887      -0.002340
      8 H                     0.139635       0.003109
      9 H                     0.161358       0.023698
     10 H                     0.162776       0.036057
     11 H                     0.143865       0.001435
     12 C                    -0.115269       0.946965
     13 H                     0.165881      -0.019155
  --------------------------------------------------------
  Sum of atomic charges =    -0.000000

                    Cartesian Multipole Moments
 -----------------------------------------------------------------
    Charge (ESU x 10^10)
                -0.0000
    Dipole Moment (Debye)
         X      -1.2228      Y      -1.5543      Z       0.1520
       Tot       1.9835
    Quadrupole Moments (Debye-Ang)
        XX     -38.9402     XY      -4.0952     YY     -42.1582
        XZ      -1.3380     YZ      -0.9888     ZZ     -40.8469

 Total job time:  19.32s(wall), 48.21s(cpu)
        *  Thank you very much for using Q-Chem.  Have a nice day.  *
