 Q-Chem 5.0, Q-Chem, Inc., Pleasanton, CA (2017)
 Q-Chem 5.0.2 for Intel X86 EM64T Linux

User input:
--------------------------------------------------------------
$molecule
0 2
C        0.6617765198    0.2657108096    0.9036455091
C        0.3491250067   -1.7756695549   -1.4367753378
C        0.7833422240   -2.7744740903   -0.9153355575
C       -1.1900978430    1.4145495375    0.3511057777
C        0.0385303504    1.9948418372   -0.1791351290
N        1.1342057693    1.2865646755    0.1653002869
H        1.3267638070   -0.4856840960    1.3095929750
H       -0.0240858357   -0.8789420140   -1.8803791982
H        1.1739462592   -3.6495682804   -0.4456885720
H       -2.1930251688    1.7993894852    0.2123746866
H        0.1236566435    2.8908186010   -0.7857285241
C       -0.7923488514    0.3066839590    1.0450748672
H       -1.4034874467   -0.4104084850    1.5779182070
$end

$rem
method                b3lyp
basis                 6-31+g(d,p)
unrestricted          true
symmetry              off
sym_ignore            true
incdft                false
incfock               0
scf_convergence       8
thresh                14
jobtype               opt
scf_guess             read
scf_algorithm         diis
max_scf_cycles        100
geom_opt_max_cycles   300
$end

--------------------------------------------------------------

    2    -286.8632279684      1.38E-09 Convergence criterion met
 Total energy in the final basis set = -286.86322797
   12    -286.8633618964      8.53E-09 Convergence criterion met
 Total energy in the final basis set = -286.86336190
   14    -286.8636911962      3.98E-09 Convergence criterion met
 Total energy in the final basis set = -286.86369120
   13    -286.8639566805      7.61E-09 Convergence criterion met
 Total energy in the final basis set = -286.86395668
   13    -286.8641782005      6.40E-09 Convergence criterion met
 Total energy in the final basis set = -286.86417820
   13    -286.8643592487      7.37E-09 Convergence criterion met
 Total energy in the final basis set = -286.86435925
   13    -286.8645034690      7.09E-09 Convergence criterion met
 Total energy in the final basis set = -286.86450347
   13    -286.8646162256      6.18E-09 Convergence criterion met
   13    -286.8705280954      8.78E-09 Convergence criterion met
 Total energy in the final basis set = -286.87052810
   13    -286.8705305241      9.80E-09 Convergence criterion met
 Total energy in the final basis set = -286.87053052
   12    -286.8705330099      6.57E-09 Convergence criterion met
 Total energy in the final basis set = -286.87053301
   11    -286.8705346590      9.97E-09 Convergence criterion met
 Total energy in the final basis set = -286.87053466
   12    -286.8705362503      8.06E-09 Convergence criterion met
 Total energy in the final basis set = -286.87053625
   11    -286.8705379364      7.55E-09 Convergence criterion met
 Total energy in the final basis set = -286.87053794

             Standard Nuclear Orientation (Angstroms)
    I     Atom           X                Y                Z
 ----------------------------------------------------------------
    1      C      -0.4101573257     0.1106192957     1.1907191645
    2      C       1.1625996198    -2.3632126165    -1.6301248762
    3      C       1.6651870659    -3.3754631492    -2.0620569143
    4      C      -0.8848718718     2.2723611288     0.8055935627
    5      C      -0.4563340384     1.5500149109    -0.3876854335
    6      N      -0.1772904462     0.2561741376    -0.1299653836
    7      H      -0.2636326484    -0.8464898260     1.6802705683
    8      H       0.7161983120    -1.4647571601    -1.2396735852
    9      H       2.1084632063    -4.2680575676    -2.4413933098
   10      H      -1.1600292547     3.3174347626     0.8530420576
   11      H      -0.3550072269     1.9534218310    -1.3897968711
   12      C      -0.8555465929     1.3524710595     1.8142601323
   13      H      -1.1012773648     1.4892955777     2.8587808794
 ----------------------------------------------------------------

   10    -286.8705386970      8.86E-09 Convergence criterion met
 Total energy in the final basis set = -286.87053870
 Final energy is   -286.870538696993
 **  OPTIMIZATION CONVERGED  **

                    Orbital Energies (a.u.)
 --------------------------------------------------------------

 Alpha MOs
 -- Occupied --
-14.344 -10.262 -10.262 -10.221 -10.220 -10.184 -10.180  -0.981
 -0.790  -0.743  -0.735  -0.590  -0.583  -0.551  -0.537  -0.476
 -0.437  -0.431  -0.424  -0.411  -0.296  -0.276  -0.275  -0.273
 -0.262

 Beta MOs
 -- Occupied --
-14.346 -10.255 -10.255 -10.219 -10.219 -10.184 -10.180  -0.974
 -0.787  -0.735  -0.722  -0.584  -0.572  -0.551  -0.535  -0.475
 -0.434  -0.421  -0.405  -0.401  -0.297  -0.275  -0.275  -0.270

          Ground-State Mulliken Net Atomic Charges

     Atom                 Charge (a.u.)    Spin (a.u.)
  --------------------------------------------------------
      1 C                    -0.032981       0.528295
      2 C                    -0.071899       0.000156
      3 C                    -0.368431      -0.000021
      4 C                    -0.109800       0.079538
      5 C                    -0.056907       0.530789
      6 N                    -0.184201      -0.160082
      7 H                     0.147567      -0.026301
      8 H                     0.211007       0.001353
      9 H                     0.182609       0.000011
     10 H                     0.143127      -0.005844
     11 H                     0.144939      -0.026361
     12 C                    -0.147781       0.084332
     13 H                     0.142751      -0.005865
  --------------------------------------------------------
  Sum of atomic charges =    -0.000000

                    Cartesian Multipole Moments
 -----------------------------------------------------------------
    Charge (ESU x 10^10)
                -0.0000
    Dipole Moment (Debye)
         X      -1.0462      Y       2.2730      Z       1.8735
       Tot       3.1259
    Quadrupole Moments (Debye-Ang)
        XX     -44.2717     XY      -2.9995     YY     -35.8404
        XZ      -1.4445     YZ      -1.0342     ZZ     -39.0687

 Total job time:  4771.97s(wall), 8075.15s(cpu)
        *  Thank you very much for using Q-Chem.  Have a nice day.  *
