 Q-Chem 5.0, Q-Chem, Inc., Pleasanton, CA (2017)
 Q-Chem 5.0.2 for Intel X86 EM64T Linux

User input:
--------------------------------------------------------------
$molecule
0 2
C       -0.7632602522    0.0057149871    1.0115006751
C        1.6386894134   -2.2196588729   -1.3983316748
C        2.2602669255   -3.1974389561   -1.7467900176
C       -1.1186383223    2.2034581676    0.7106830341
C       -0.3283769562    1.5914699816   -0.3528765968
N       -0.1292784470    0.2734843963   -0.1486562219
H       -0.7663575929   -0.9968966541    1.4261377491
H        1.0845470216   -1.3526523968   -1.0822970356
H        2.8081485946   -4.0599882006   -2.0517481939
H       -1.4072765464    3.2443061098    0.7715159450
H        0.0779213145    2.0879611409   -1.2272963979
C       -1.3967270301    1.1900028482    1.5825052240
H       -1.9596581224    1.2302374491    2.5056535112
$end

$rem
method                b3lyp
basis                 6-31+g(d,p)
unrestricted          true
symmetry              off
sym_ignore            true
incdft                false
incfock               0
scf_convergence       8
thresh                14
jobtype               sp
scf_guess             core
scf_guess_mix         5
scf_algorithm         diis
max_scf_cycles        100
$end

--------------------------------------------------------------

             Standard Nuclear Orientation (Angstroms)
    I     Atom           X                Y                Z
 ----------------------------------------------------------------
    1      C      -0.7632602522     0.0057149871     1.0115006751
    2      C       1.6386894134    -2.2196588729    -1.3983316748
    3      C       2.2602669255    -3.1974389561    -1.7467900176
    4      C      -1.1186383223     2.2034581676     0.7106830341
    5      C      -0.3283769562     1.5914699816    -0.3528765968
    6      N      -0.1292784470     0.2734843963    -0.1486562219
    7      H      -0.7663575929    -0.9968966541     1.4261377491
    8      H       1.0845470216    -1.3526523968    -1.0822970356
    9      H       2.8081485946    -4.0599882006    -2.0517481939
   10      H      -1.4072765464     3.2443061098     0.7715159450
   11      H       0.0779213145     2.0879611409    -1.2272963979
   12      C      -1.3967270301     1.1900028482     1.5825052240
   13      H      -1.9596581224     1.2302374491     2.5056535112
 ----------------------------------------------------------------

   25    -286.8704725898      2.06E-09 Convergence criterion met
 Total energy in the final basis set = -286.87047259

                    Orbital Energies (a.u.)
 --------------------------------------------------------------

 Alpha MOs
 -- Occupied --
-14.344 -10.262 -10.262 -10.221 -10.220 -10.184 -10.180  -0.981
 -0.790  -0.743  -0.735  -0.590  -0.583  -0.551  -0.537  -0.476
 -0.437  -0.431  -0.424  -0.411  -0.296  -0.276  -0.275  -0.273
 -0.262

 Beta MOs
 -- Occupied --
-14.346 -10.255 -10.255 -10.219 -10.219 -10.184 -10.180  -0.974
 -0.787  -0.735  -0.722  -0.584  -0.572  -0.551  -0.535  -0.476
 -0.434  -0.421  -0.405  -0.401  -0.297  -0.275  -0.275  -0.270

          Ground-State Mulliken Net Atomic Charges

     Atom                 Charge (a.u.)    Spin (a.u.)
  --------------------------------------------------------
      1 C                    -0.032640       0.528377
      2 C                    -0.071874       0.000147
      3 C                    -0.368336      -0.000003
      4 C                    -0.109417       0.079510
      5 C                    -0.057127       0.530944
      6 N                    -0.183899      -0.160154
      7 H                     0.147601      -0.026306
      8 H                     0.210807       0.001354
      9 H                     0.182624       0.000011
     10 H                     0.143121      -0.005846
     11 H                     0.144886      -0.026358
     12 C                    -0.148568       0.084185
     13 H                     0.142823      -0.005861
  --------------------------------------------------------
  Sum of atomic charges =    -0.000000

                    Cartesian Multipole Moments
 -----------------------------------------------------------------
    Charge (ESU x 10^10)
                -0.0000
    Dipole Moment (Debye)
         X      -1.6054      Y       2.1023      Z       1.6638
       Tot       3.1249
    Quadrupole Moments (Debye-Ang)
        XX     -42.8495     XY      -2.3281     YY     -35.5396
        XZ      -2.9303     YZ      -1.4648     ZZ     -40.7703

 Total job time:  59.18s(wall), 105.47s(cpu)
        *  Thank you very much for using Q-Chem.  Have a nice day.  *
