 Q-Chem 5.0, Q-Chem, Inc., Pleasanton, CA (2017)
 Q-Chem 5.0.2 for Intel X86 EM64T Linux

User input:
--------------------------------------------------------------
$molecule
0 2
C        0.4849791357   -0.2290290790    0.2385351779
C        0.4185789294   -1.3086068369   -0.8474943871
C        0.8510005440   -2.5411554769   -0.7256288727
C       -1.1172286172    1.4144361376    0.4684871929
C        0.1027647159    1.9071332074   -0.1911839246
N        1.0282020989    1.0160615384   -0.3286792258
H        1.1495728936   -0.5639786715    1.0454920049
H       -0.0522784407   -0.9732037375   -1.7727164474
H        1.3434077873   -3.1700082741    0.0038451299
H       -2.0082334812    1.9970575367    0.6707718026
H        0.2495594838    2.9250607871   -0.5468525140
C       -0.8922392396    0.1165520926    0.7527525598
H       -1.5580858101   -0.5903192243    1.2326715034
$end

$rem
method                b3lyp
basis                 6-31+g(d,p)
unrestricted          true
symmetry              off
sym_ignore            true
incdft                false
incfock               0
scf_convergence       6
thresh                14
jobtype               sp
scf_guess             read
scf_algorithm         diis
max_scf_cycles        100
stability_analysis    true
max_cis_cycles        100
cis_n_roots           4
$end

--------------------------------------------------------------

             Standard Nuclear Orientation (Angstroms)
    I     Atom           X                Y                Z
 ----------------------------------------------------------------
    1      C       0.4849791357    -0.2290290790     0.2385351779
    2      C       0.4185789294    -1.3086068369    -0.8474943871
    3      C       0.8510005440    -2.5411554769    -0.7256288727
    4      C      -1.1172286172     1.4144361376     0.4684871929
    5      C       0.1027647159     1.9071332074    -0.1911839246
    6      N       1.0282020989     1.0160615384    -0.3286792258
    7      H       1.1495728936    -0.5639786715     1.0454920049
    8      H      -0.0522784407    -0.9732037375    -1.7727164474
    9      H       1.3434077873    -3.1700082741     0.0038451299
   10      H      -2.0082334812     1.9970575367     0.6707718026
   11      H       0.2495594838     2.9250607871    -0.5468525140
   12      C      -0.8922392396     0.1165520926     0.7527525598
   13      H      -1.5580858101    -0.5903192243     1.2326715034
 ----------------------------------------------------------------

    2    -286.8743959899      1.52E-09 Convergence criterion met
 Total energy in the final basis set = -286.87439599

         TDDFT/TDA Excitation Energies
 ---------------------------------------------------

 Excited state   1: excitation energy (eV) =    2.8959
 Total energy for state  1:                  -286.76797203 au
    <S**2>     :  0.8667
    Trans. Mom.:  0.1062 X  -0.0034 Y  -0.0442 Z
    Strength   :     0.0009399403
    D( 22) --> S(  1) amplitude = -0.4089 beta
    D( 23) --> S(  1) amplitude = -0.1942 beta
    D( 24) --> S(  1) amplitude =  0.8547 beta

 Excited state   2: excitation energy (eV) =    3.3521
 Total energy for state  2:                  -286.75121007 au
    <S**2>     :  2.5010
    Trans. Mom.: -0.0322 X  -0.0151 Y   0.0218 Z
    Strength   :     0.0001431406
    D( 22) --> V(  1) amplitude = -0.1681 alpha
    D( 23) --> V(  1) amplitude = -0.1664 alpha
    D( 24) --> V(  1) amplitude = -0.5983 alpha
    D( 22) --> S(  1) amplitude =  0.3165 beta
    D( 23) --> S(  1) amplitude =  0.2794 beta
    D( 23) --> V(  1) amplitude =  0.1979 beta
    D( 24) --> V(  1) amplitude =  0.5439 beta

 Excited state   3: excitation energy (eV) =    3.9084
 Total energy for state  3:                  -286.73076551 au
    <S**2>     :  2.1094
    Trans. Mom.:  0.0200 X  -0.0243 Y   0.0242 Z
    Strength   :     0.0001509806
    D( 23) --> V(  1) amplitude = -0.4351 alpha
    D( 22) --> S(  1) amplitude = -0.2767 beta
    D( 22) --> V(  1) amplitude = -0.1826 beta
    D( 23) --> S(  1) amplitude =  0.6287 beta
    D( 23) --> V(  1) amplitude =  0.4385 beta
    D( 24) --> V(  1) amplitude = -0.2155 beta

 Excited state   4: excitation energy (eV) =    4.2328
 Total energy for state  4:                  -286.71884217 au
    <S**2>     :  0.8782
    Trans. Mom.: -0.1077 X   0.3999 Y   0.1090 Z
    Strength   :     0.0190205870
    S(  1) --> V(  1) amplitude =  0.9363 alpha
    S(  1) --> V(  2) amplitude =  0.1648 alpha

 ---------------------------------------------------

                    Orbital Energies (a.u.)
 --------------------------------------------------------------

 Alpha MOs
 -- Occupied --
-14.338 -10.242 -10.239 -10.222 -10.217 -10.216 -10.212  -0.959
 -0.803  -0.780  -0.715  -0.598  -0.572  -0.566  -0.523  -0.481
 -0.437  -0.421  -0.413  -0.385  -0.344  -0.296  -0.278  -0.264
 -0.244

 Beta MOs
 -- Occupied --
-14.338 -10.240 -10.239 -10.217 -10.217 -10.212 -10.207  -0.958
 -0.795  -0.778  -0.704  -0.587  -0.568  -0.561  -0.523  -0.473
 -0.428  -0.419  -0.410  -0.382  -0.340  -0.291  -0.277  -0.260

          Ground-State Mulliken Net Atomic Charges

     Atom                 Charge (a.u.)    Spin (a.u.)
  --------------------------------------------------------
      1 C                    -0.174751       0.081077
      2 C                     0.082763      -0.199200
      3 C                    -0.274053       1.054970
      4 C                    -0.003789      -0.006956
      5 C                    -0.090879       0.019509
      6 N                    -0.192586      -0.002750
      7 H                     0.165576      -0.004792
      8 H                     0.152060       0.042116
      9 H                     0.149819       0.006049
     10 H                     0.136685       0.000201
     11 H                     0.132910       0.000539
     12 C                    -0.228746       0.009290
     13 H                     0.144991      -0.000053
  --------------------------------------------------------
  Sum of atomic charges =     0.000000

                    Cartesian Multipole Moments
 -----------------------------------------------------------------
    Charge (ESU x 10^10)
                 0.0000
    Dipole Moment (Debye)
         X      -1.9775      Y       0.1964      Z       1.5582
       Tot       2.5253
    Quadrupole Moments (Debye-Ang)
        XX     -44.1946     XY      -4.2504     YY     -38.5056
        XZ       1.9309     YZ      -2.8402     ZZ     -42.7085

 Total job time:  300.17s(wall), 205.01s(cpu)
        *  Thank you very much for using Q-Chem.  Have a nice day.  *
