 Q-Chem 5.0, Q-Chem, Inc., Pleasanton, CA (2017)
 Q-Chem 5.0.2 for Intel X86 EM64T Linux

User input:
--------------------------------------------------------------
$molecule
0 2
C        0.4554924847   -0.2440426720    0.2004361506
C        0.3432825577   -1.3559443260   -0.8450396722
C        0.8810974976   -2.5464639423   -0.7324905237
C       -1.0845592484    1.4433932196    0.5070676338
C        0.1103894269    1.8954701917   -0.2221417819
N        1.0007320819    0.9804322681   -0.4100490230
H        1.1471245858   -0.5655830385    0.9907740219
H       -0.2460440492   -1.0890833926   -1.7238192466
H        1.4976167924   -3.0836174074   -0.0221348083
H       -1.9391210594    2.0583099575    0.7662419079
H        0.2687254311    2.9116056672   -0.5814679767
C       -0.8871034018    0.1402947658    0.7770996199
H       -1.5476330996   -0.5447712913    1.2955236985
****
C       -0.6743378440    0.0691805663    1.2907772046
C        1.5694126343   -2.2322679139   -1.4713996000
C        2.1825574091   -3.1095587754   -2.0285660126
C       -1.1251472279    2.1626594179    0.6238999378
C       -0.3433625379    1.3991734407   -0.3412922316
N       -0.0853533545    0.1461092959    0.0815145326
H       -0.6276067536   -0.8441914809    1.8748774391
H        1.0261019209   -1.4492052735   -0.9691900969
H        2.7227126690   -3.8851539032   -2.5231785051
H       -1.4514454894    3.1880325737    0.5090177794
H        0.0177545009    1.7471291971   -1.3038398819
C       -1.3370185166    1.3120170019    1.6680606217
H       -1.8742674101    1.4960758532    2.5893188129
$end

$rem
method                b3lyp
basis                 6-31g(d)
unrestricted          true
symmetry              off
sym_ignore            true
incdft                false
incfock               0
scf_convergence       8
thresh                14
jobtype               fsm
scf_guess             core
scf_guess_mix         5
scf_algorithm         diis
max_scf_cycles        100
fsm_nnode             21
fsm_ngrad             6
fsm_mode              2
fsm_opt_mode          2
$end

--------------------------------------------------------------

   24    -286.8505969071      7.66E-09 Convergence criterion met
 Total energy in the final basis set = -286.85059691
   25    -286.8437718742      7.38E-09 Convergence criterion met
 Total energy in the final basis set = -286.84377187
   22    -286.8435318510      4.22E-09 Convergence criterion met
 Total energy in the final basis set = -286.84353185
   22    -286.8466347138      4.66E-09 Convergence criterion met
 Total energy in the final basis set = -286.84663471
   24    -286.8429943976      9.61E-09 Convergence criterion met
 Total energy in the final basis set = -286.84299440
   24    -286.8418171814      4.68E-09 Convergence criterion met
 Total energy in the final basis set = -286.84181718
   25    -286.8190426095      7.08E-09 Convergence criterion met
 Total energy in the final basis set = -286.81904261
   27    -286.8254875674      4.45E-09 Convergence criterion met
 Total energy in the final basis set = -286.78818996
   24    -286.7880212238      7.83E-09 Convergence criterion met
 Total energy in the final basis set = -286.78802122
   24    -286.7882425390      7.80E-09 Convergence criterion met
 Total energy in the final basis set = -286.78824254
   24    -286.7879689741      7.84E-09 Convergence criterion met
 Total energy in the final basis set = -286.78796897
   24    -286.7883054746      7.79E-09 Convergence criterion met
 Total energy in the final basis set = -286.78830547
   24    -286.7879065097      7.84E-09 Convergence criterion met
 Total energy in the final basis set = -286.78790651
   24    -286.7883635029      7.79E-09 Convergence criterion met
 Total energy in the final basis set = -286.78836350
   24    -286.7878489887      7.84E-09 Convergence criterion met
 Total energy in the final basis set = -286.78784899

                    Orbital Energies (a.u.)
 --------------------------------------------------------------

 Alpha MOs
 -- Occupied --
-14.314 -10.242 -10.224 -10.204 -10.201 -10.200 -10.199  -0.950
 -0.760  -0.754  -0.714  -0.572  -0.558  -0.554  -0.509  -0.469
 -0.423  -0.402  -0.394  -0.368  -0.306  -0.284  -0.261  -0.244
 -0.220

 Beta MOs
 -- Occupied --
-14.315 -10.232 -10.221 -10.204 -10.199 -10.199 -10.198  -0.945
 -0.757  -0.747  -0.698  -0.566  -0.554  -0.547  -0.506  -0.464
 -0.418  -0.395  -0.388  -0.354  -0.288  -0.282  -0.259  -0.242

          Ground-State Mulliken Net Atomic Charges

     Atom                 Charge (a.u.)    Spin (a.u.)
  --------------------------------------------------------
      1 C                    -0.015023       0.602151
      2 C                    -0.154010      -0.217018
      3 C                    -0.198836       0.394327
      4 C                    -0.148361       0.164107
      5 C                     0.054321       0.213368
      6 N                    -0.377928      -0.073314
      7 H                     0.175302      -0.031349
      8 H                     0.207137       0.022274
      9 H                     0.188988      -0.009272
     10 H                     0.143972      -0.006489
     11 H                     0.143245      -0.011163
     12 C                    -0.162498      -0.047748
     13 H                     0.143692       0.000128
  --------------------------------------------------------
  Sum of atomic charges =    -0.000000

                    Cartesian Multipole Moments
 -----------------------------------------------------------------
    Charge (ESU x 10^10)
                -0.0000
    Dipole Moment (Debye)
         X      -1.1623      Y      -0.0193      Z       0.8467
       Tot       1.4381
    Quadrupole Moments (Debye-Ang)
        XX     -40.8932     XY      -5.4854     YY     -34.2697
        XZ       0.1803     YZ      -1.3273     ZZ     -39.4560

             Standard Nuclear Orientation (Angstroms)
    I     Atom           X                Y                Z
 ----------------------------------------------------------------
    1      C       0.1754950381    -0.1395226424     0.5932997691
    2      C       0.6250692464    -1.7171176984    -1.0565206041
    3      C       1.2895196168    -2.7599319278    -1.1328759000
    4      C      -1.1774725144     1.6782107003     0.5259900210
    5      C       0.0355371764     1.8256200037    -0.2928525200
    6      N       0.8209143001     0.7941523442    -0.2338075946
    7      H       0.7722272405    -0.6455603316     1.3507989620
    8      H       0.0102696871    -1.1032496170    -1.6977822589
    9      H       1.9682781180    -3.5191944885    -0.7994692701
   10      H      -1.9304944349     2.4409214717     0.6883721776
   11      H       0.2684644047     2.6881384868    -0.9122967412
   12      C      -1.1024373152     0.4320294654     1.0748529487
   13      H      -1.7670691321     0.0093166148     1.8142609998
 ----------------------------------------------------------------

 Total job time:  3618.06s(wall), 3923.93s(cpu)
        *  Thank you very much for using Q-Chem.  Have a nice day.  *
