 Q-Chem 5.0, Q-Chem, Inc., Pleasanton, CA (2017)
 Q-Chem 5.0.2 for Intel X86 EM64T Linux

User input:
--------------------------------------------------------------
$molecule
0 2
C        0.4556283744   -0.2440434559    0.2002947438
C        0.3427997002   -1.3563676241   -0.8445979894
C        0.8808806592   -2.5467900593   -0.7322657859
C       -1.0846620042    1.4434213999    0.5061920816
C        0.1120311673    1.8965232616   -0.2193801825
N        1.0003827572    0.9802669516   -0.4108748766
H        1.1474616248   -0.5652592280    0.9906073916
H       -0.2492391948   -1.0904876804   -1.7218850297
H        1.4997060965   -3.0831676815   -0.0233021517
H       -1.9399505811    2.0579974304    0.7637253815
H        0.2696246603    2.9122756731   -0.5802296105
C       -0.8868969286    0.1405314116    0.7771461405
H       -1.5477663317   -0.5449003991    1.2945698876
$end

$rem
method                b3lyp
basis                 6-31g(d)
unrestricted          true
symmetry              off
sym_ignore            true
incdft                false
incfock               0
scf_convergence       8
thresh                14
jobtype               opt
scf_guess             core
scf_guess_mix         5
scf_algorithm         diis
max_scf_cycles        100
geom_opt_max_cycles   300
$end

--------------------------------------------------------------

   24    -286.8505973768      7.52E-09 Convergence criterion met
 Total energy in the final basis set = -286.85059738

             Standard Nuclear Orientation (Angstroms)
    I     Atom           X                Y                Z
 ----------------------------------------------------------------
    1      C       0.4554924847    -0.2440426720     0.2004361506
    2      C       0.3432825577    -1.3559443260    -0.8450396722
    3      C       0.8810974976    -2.5464639423    -0.7324905237
    4      C      -1.0845592484     1.4433932196     0.5070676338
    5      C       0.1103894269     1.8954701917    -0.2221417819
    6      N       1.0007320819     0.9804322681    -0.4100490230
    7      H       1.1471245858    -0.5655830385     0.9907740219
    8      H      -0.2460440492    -1.0890833926    -1.7238192466
    9      H       1.4976167924    -3.0836174074    -0.0221348083
   10      H      -1.9391210594     2.0583099575     0.7662419079
   11      H       0.2687254311     2.9116056672    -0.5814679767
   12      C      -0.8871034018     0.1402947658     0.7770996199
   13      H      -1.5476330996    -0.5447712913     1.2955236985
 ----------------------------------------------------------------

   16    -286.8505969074      5.48E-09 Convergence criterion met
 Total energy in the final basis set = -286.85059691
 Final energy is   -286.850596907385
 **  OPTIMIZATION CONVERGED  **

                    Orbital Energies (a.u.)
 --------------------------------------------------------------

 Alpha MOs
 -- Occupied --
-14.323 -10.230 -10.227 -10.209 -10.205 -10.202 -10.201  -0.946
 -0.791  -0.769  -0.704  -0.587  -0.563  -0.555  -0.514  -0.469
 -0.425  -0.411  -0.404  -0.374  -0.332  -0.283  -0.265  -0.252
 -0.234

 Beta MOs
 -- Occupied --
-14.323 -10.229 -10.227 -10.205 -10.204 -10.201 -10.194  -0.945
 -0.783  -0.767  -0.692  -0.577  -0.558  -0.551  -0.513  -0.461
 -0.416  -0.409  -0.401  -0.370  -0.328  -0.279  -0.264  -0.248

          Ground-State Mulliken Net Atomic Charges

     Atom                 Charge (a.u.)    Spin (a.u.)
  --------------------------------------------------------
      1 C                    -0.095445       0.072737
      2 C                    -0.075866      -0.163777
      3 C                    -0.194308       1.044163
      4 C                    -0.141128       0.002934
      5 C                     0.052073       0.008785
      6 N                    -0.363821      -0.003297
      7 H                     0.173214      -0.003386
      8 H                     0.157770       0.037303
      9 H                     0.160535       0.001746
     10 H                     0.142791       0.000390
     11 H                     0.145194       0.000618
     12 C                    -0.113590       0.002007
     13 H                     0.152581      -0.000222
  --------------------------------------------------------
  Sum of atomic charges =     0.000000

                    Cartesian Multipole Moments
 -----------------------------------------------------------------
    Charge (ESU x 10^10)
                 0.0000
    Dipole Moment (Debye)
         X      -1.7617      Y       0.1762      Z       1.5103
       Tot       2.3271
    Quadrupole Moments (Debye-Ang)
        XX     -41.9840     XY      -3.7800     YY     -37.4839
        XZ       1.8512     YZ      -2.0390     ZZ     -41.2933

 Total job time:  93.89s(wall), 118.34s(cpu)
        *  Thank you very much for using Q-Chem.  Have a nice day.  *
