 Q-Chem 5.0, Q-Chem, Inc., Pleasanton, CA (2017)
 Q-Chem 5.0.2 for Intel X86 EM64T Linux

User input:
--------------------------------------------------------------
$molecule
0 2
C       -0.6742597494    0.0691801446    1.2906990278
C        1.5692402951   -2.2321629297   -1.4714070418
C        2.1826515824   -3.1096141351   -2.0285604696
C       -1.1252514648    2.1625924157    0.6240483918
C       -0.3434398663    1.3991189076   -0.3412387995
N       -0.0852379199    0.1461170800    0.0814359468
H       -0.6276238764   -0.8440430331    1.8747778661
H        1.0260766928   -1.4491398538   -0.9691160022
H        2.7227685522   -3.8852460490   -2.5232200045
H       -1.4513558709    3.1880594155    0.5089220640
H        0.0177586869    1.7471190384   -1.3037738335
C       -1.3371030355    1.3118335110    1.6681667171
H       -1.8742240261    1.4961854879    2.5892661375
$end

$rem
method                b3lyp
basis                 6-31g(d)
unrestricted          true
symmetry              off
sym_ignore            true
incdft                false
incfock               0
scf_convergence       8
thresh                14
jobtype               opt
scf_guess             core
scf_guess_mix         5
scf_algorithm         diis
max_scf_cycles        100
geom_opt_max_cycles   300
$end

--------------------------------------------------------------

   25    -286.8437712119      7.12E-09 Convergence criterion met
 Total energy in the final basis set = -286.84377121

             Standard Nuclear Orientation (Angstroms)
    I     Atom           X                Y                Z
 ----------------------------------------------------------------
    1      C      -0.6743378440     0.0691805663     1.2907772046
    2      C       1.5694126343    -2.2322679139    -1.4713996000
    3      C       2.1825574091    -3.1095587754    -2.0285660126
    4      C      -1.1251472279     2.1626594179     0.6238999378
    5      C      -0.3433625379     1.3991734407    -0.3412922316
    6      N      -0.0853533545     0.1461092959     0.0815145326
    7      H      -0.6276067536    -0.8441914809     1.8748774391
    8      H       1.0261019209    -1.4492052735    -0.9691900969
    9      H       2.7227126690    -3.8851539032    -2.5231785051
   10      H      -1.4514454894     3.1880325737     0.5090177794
   11      H       0.0177545009     1.7471291971    -1.3038398819
   12      C      -1.3370185166     1.3120170019     1.6680606217
   13      H      -1.8742674101     1.4960758532     2.5893188129
 ----------------------------------------------------------------

   17    -286.8437719949      3.44E-09 Convergence criterion met
 Total energy in the final basis set = -286.84377199
 Final energy is   -286.843771994858
 **  OPTIMIZATION CONVERGED  **

                    Orbital Energies (a.u.)
 --------------------------------------------------------------

 Alpha MOs
 -- Occupied --
-14.332 -10.253 -10.253 -10.211 -10.210 -10.164 -10.160  -0.972
 -0.781  -0.735  -0.716  -0.582  -0.576  -0.539  -0.529  -0.462
 -0.429  -0.423  -0.416  -0.403  -0.286  -0.264  -0.257  -0.256
 -0.253

 Beta MOs
 -- Occupied --
-14.334 -10.246 -10.245 -10.210 -10.209 -10.164 -10.160  -0.965
 -0.778  -0.716  -0.714  -0.576  -0.565  -0.539  -0.527  -0.462
 -0.426  -0.414  -0.397  -0.392  -0.287  -0.261  -0.257  -0.256

          Ground-State Mulliken Net Atomic Charges

     Atom                 Charge (a.u.)    Spin (a.u.)
  --------------------------------------------------------
      1 C                     0.071774       0.533793
      2 C                    -0.102228      -0.000165
      3 C                    -0.353383      -0.000084
      4 C                    -0.155437       0.081070
      5 C                     0.071841       0.534159
      6 N                    -0.413021      -0.167743
      7 H                     0.163722      -0.026195
      8 H                     0.230365       0.001459
      9 H                     0.173124       0.000018
     10 H                     0.152571      -0.005854
     11 H                     0.163613      -0.026209
     12 C                    -0.155548       0.081612
     13 H                     0.152606      -0.005861
  --------------------------------------------------------
  Sum of atomic charges =     0.000000

                    Cartesian Multipole Moments
 -----------------------------------------------------------------
    Charge (ESU x 10^10)
                 0.0000
    Dipole Moment (Debye)
         X      -1.6236      Y       2.2865      Z       1.5180
       Tot       3.1888
    Quadrupole Moments (Debye-Ang)
        XX     -41.2594     XY      -2.2482     YY     -36.2205
        XZ      -2.8758     YZ      -0.9775     ZZ     -37.1761

 Total job time:  84.25s(wall), 103.31s(cpu)
        *  Thank you very much for using Q-Chem.  Have a nice day.  *
