 Q-Chem 5.0, Q-Chem, Inc., Pleasanton, CA (2017)
 Q-Chem 5.0.2 for Intel X86 EM64T Linux

User input:
--------------------------------------------------------------
$molecule
0 2
C        0.1754950381   -0.1395226424    0.5932997691
C        0.6250692464   -1.7171176984   -1.0565206041
C        1.2895196168   -2.7599319278   -1.1328759000
C       -1.1774725144    1.6782107003    0.5259900210
C        0.0355371764    1.8256200037   -0.2928525200
N        0.8209143001    0.7941523442   -0.2338075946
H        0.7722272405   -0.6455603316    1.3507989620
H        0.0102696871   -1.1032496170   -1.6977822589
H        1.9682781180   -3.5191944885   -0.7994692701
H       -1.9304944349    2.4409214717    0.6883721776
H        0.2684644047    2.6881384868   -0.9122967412
C       -1.1024373152    0.4320294654    1.0748529487
H       -1.7670691321    0.0093166148    1.8142609998
$end

$rem
method                b3lyp
basis                 6-31g(d)
unrestricted          true
symmetry              off
sym_ignore            true
incdft                false
incfock               0
scf_convergence       8
thresh                14
jobtype               ts
scf_guess             read
scf_algorithm         diis
max_scf_cycles        100
geom_opt_max_cycles   500
geom_opt_dmax         100
geom_opt_tol_gradient 10
geom_opt_hessian      read
$end

--------------------------------------------------------------

    2    -286.7982298393      1.19E-09 Convergence criterion met
 Total energy in the final basis set = -286.79822984
   14    -286.8009072218      4.19E-09 Convergence criterion met
 Total energy in the final basis set = -286.80090722
   14    -286.8033194443      9.79E-09 Convergence criterion met
 Total energy in the final basis set = -286.80331944
   15    -286.8054604593      4.41E-09 Convergence criterion met
 Total energy in the final basis set = -286.80546046
   15    -286.8073557377      4.36E-09 Convergence criterion met
 Total energy in the final basis set = -286.80735574
   15    -286.8090328809      4.65E-09 Convergence criterion met
 Total energy in the final basis set = -286.80903288
   15    -286.8105182849      5.09E-09 Convergence criterion met
 Total energy in the final basis set = -286.81051828
   15    -286.8118350192      5.37E-09 Convergence criterion met
   12    -286.8186723696      8.24E-09 Convergence criterion met
 Total energy in the final basis set = -286.81867237
   11    -286.8186726874      9.90E-09 Convergence criterion met
 Total energy in the final basis set = -286.81867269
   11    -286.8186726817      6.37E-09 Convergence criterion met
 Total energy in the final basis set = -286.81867268
   12    -286.8186682406      9.35E-09 Convergence criterion met
 Total energy in the final basis set = -286.81866824
   13    -286.8186727168      8.26E-09 Convergence criterion met
 Total energy in the final basis set = -286.81867272
   10    -286.8186727142      8.70E-09 Convergence criterion met
 Total energy in the final basis set = -286.81867271

             Standard Nuclear Orientation (Angstroms)
    I     Atom           X                Y                Z
 ----------------------------------------------------------------
    1      C       0.6110081393    -0.0137257113     0.6057377318
    2      C       0.3864382092    -1.3731503347    -0.9765884753
    3      C       0.7670844458    -2.5379409551    -0.7909206097
    4      C      -1.1584501724     1.3547757804     0.3390998713
    5      C       0.0665095905     1.8800788300    -0.2509127173
    6      N       1.1121290986     1.0954479934    -0.0751608764
    7      H       1.2948267095    -0.6123601240     1.1954586507
    8      H      -0.0410925599    -0.6650820185    -1.6626198813
    9      H       1.1704279262    -3.4184166535    -0.3381121691
   10      H      -2.1336609040     1.8256763788     0.3163194240
   11      H       0.1603063057     2.8206692435    -0.7882994026
   12      C      -0.8100809808     0.1655830376     0.9076075713
   13      H      -1.4371443761    -0.5377430855     1.4403608719
 ----------------------------------------------------------------

    9    -286.8186727392      8.52E-09 Convergence criterion met
 Total energy in the final basis set = -286.81867274
 Final energy is   -286.818672739159
 **  OPTIMIZATION CONVERGED  **

                    Orbital Energies (a.u.)
 --------------------------------------------------------------

 Alpha MOs
 -- Occupied --
-14.309 -10.235 -10.221 -10.217 -10.213 -10.193 -10.190  -0.946
 -0.771  -0.760  -0.709  -0.580  -0.561  -0.553  -0.511  -0.493
 -0.409  -0.404  -0.395  -0.379  -0.314  -0.298  -0.260  -0.243
 -0.207

 Beta MOs
 -- Occupied --
-14.311 -10.228 -10.219 -10.217 -10.206 -10.193 -10.189  -0.941
 -0.763  -0.756  -0.695  -0.573  -0.557  -0.547  -0.509  -0.489
 -0.405  -0.397  -0.387  -0.371  -0.295  -0.290  -0.260  -0.240

          Ground-State Mulliken Net Atomic Charges

     Atom                 Charge (a.u.)    Spin (a.u.)
  --------------------------------------------------------
      1 C                    -0.050025       0.410755
      2 C                    -0.158090      -0.227541
      3 C                    -0.155827       0.559368
      4 C                    -0.159254       0.079986
      5 C                     0.031721       0.261433
      6 N                    -0.377584      -0.090456
      7 H                     0.158394      -0.020973
      8 H                     0.204143       0.029564
      9 H                     0.193476      -0.023024
     10 H                     0.136526      -0.004666
     11 H                     0.140383      -0.013373
     12 C                    -0.106514       0.042331
     13 H                     0.142652      -0.003406
  --------------------------------------------------------
  Sum of atomic charges =    -0.000000

                    Cartesian Multipole Moments
 -----------------------------------------------------------------
    Charge (ESU x 10^10)
                 0.0000
    Dipole Moment (Debye)
         X      -1.6075      Y      -1.4220      Z       0.4268
       Tot       2.1882
    Quadrupole Moments (Debye-Ang)
        XX     -42.8043     XY      -5.4954     YY     -34.5701
        XZ       1.2864     YZ      -3.0003     ZZ     -40.3332

 Total job time:  1753.43s(wall), 1766.60s(cpu)
        *  Thank you very much for using Q-Chem.  Have a nice day.  *
