 Q-Chem 5.0, Q-Chem, Inc., Pleasanton, CA (2017)
 Q-Chem 5.0.2 for Intel X86 EM64T Linux

User input:
--------------------------------------------------------------
$molecule
0 2
C        0.1754950381   -0.1395226424    0.5932997691
C        0.6250692464   -1.7171176984   -1.0565206041
C        1.2895196168   -2.7599319278   -1.1328759000
C       -1.1774725144    1.6782107003    0.5259900210
C        0.0355371764    1.8256200037   -0.2928525200
N        0.8209143001    0.7941523442   -0.2338075946
H        0.7722272405   -0.6455603316    1.3507989620
H        0.0102696871   -1.1032496170   -1.6977822589
H        1.9682781180   -3.5191944885   -0.7994692701
H       -1.9304944349    2.4409214717    0.6883721776
H        0.2684644047    2.6881384868   -0.9122967412
C       -1.1024373152    0.4320294654    1.0748529487
H       -1.7670691321    0.0093166148    1.8142609998
$end

$rem
method                b3lyp
basis                 6-31g(d)
unrestricted          true
symmetry              off
sym_ignore            true
incdft                false
incfock               0
scf_convergence       8
thresh                14
jobtype               freq
scf_guess             read
scf_algorithm         diis
max_scf_cycles        100
$end

--------------------------------------------------------------

             Standard Nuclear Orientation (Angstroms)
    I     Atom           X                Y                Z
 ----------------------------------------------------------------
    1      C       0.1754950381    -0.1395226424     0.5932997691
    2      C       0.6250692464    -1.7171176984    -1.0565206041
    3      C       1.2895196168    -2.7599319278    -1.1328759000
    4      C      -1.1774725144     1.6782107003     0.5259900210
    5      C       0.0355371764     1.8256200037    -0.2928525200
    6      N       0.8209143001     0.7941523442    -0.2338075946
    7      H       0.7722272405    -0.6455603316     1.3507989620
    8      H       0.0102696871    -1.1032496170    -1.6977822589
    9      H       1.9682781180    -3.5191944885    -0.7994692701
   10      H      -1.9304944349     2.4409214717     0.6883721776
   11      H       0.2684644047     2.6881384868    -0.9122967412
   12      C      -1.1024373152     0.4320294654     1.0748529487
   13      H      -1.7670691321     0.0093166148     1.8142609998
 ----------------------------------------------------------------

    2    -286.7982298393      4.80E-09 Convergence criterion met
 Total energy in the final basis set = -286.79822984

                    Orbital Energies (a.u.)
 --------------------------------------------------------------

 Alpha MOs
 -- Occupied --
-14.315 -10.238 -10.225 -10.204 -10.200 -10.199 -10.195  -0.950
 -0.764  -0.753  -0.713  -0.571  -0.558  -0.556  -0.511  -0.474
 -0.422  -0.403  -0.396  -0.369  -0.304  -0.284  -0.262  -0.248
 -0.218

 Beta MOs
 -- Occupied --
-14.316 -10.229 -10.222 -10.203 -10.199 -10.196 -10.195  -0.945
 -0.761  -0.747  -0.697  -0.566  -0.554  -0.548  -0.509  -0.470
 -0.416  -0.397  -0.388  -0.356  -0.286  -0.282  -0.260  -0.245

          Ground-State Mulliken Net Atomic Charges

     Atom                 Charge (a.u.)    Spin (a.u.)
  --------------------------------------------------------
      1 C                    -0.014473       0.592774
      2 C                    -0.159884      -0.193039
      3 C                    -0.193365       0.354044
      4 C                    -0.149296       0.181415
      5 C                     0.049929       0.235260
      6 N                    -0.382155      -0.077893
      7 H                     0.172032      -0.031751
      8 H                     0.207953       0.018554
      9 H                     0.189497      -0.010177
     10 H                     0.141753      -0.007902
     11 H                     0.143669      -0.011863
     12 C                    -0.149498      -0.049633
     13 H                     0.143840       0.000211
  --------------------------------------------------------
  Sum of atomic charges =    -0.000000

                    Cartesian Multipole Moments
 -----------------------------------------------------------------
    Charge (ESU x 10^10)
                 0.0000
    Dipole Moment (Debye)
         X      -1.2558      Y      -0.1278      Z       0.8520
       Tot       1.5230
    Quadrupole Moments (Debye-Ang)
        XX     -40.9302     XY      -5.4891     YY     -34.2530
        XZ       0.3608     YZ      -1.6065     ZZ     -39.6051

 Frequency:      -316.50                 -34.99                  90.63
 Force Cnst:      0.3791                 0.0018                 0.0195
 Red. Mass:       6.4230                 2.4708                 4.0265
 IR Intens:        7.329                  1.103                  2.642
 Frequency:       172.31                 270.45                 548.79
 Force Cnst:      0.0717                 0.1418                 0.4450
 Red. Mass:       4.0967                 3.2907                 2.5078
 IR Intens:        2.141                  1.026                  7.081
 Frequency:       586.97                 634.19                 657.45
 Force Cnst:      0.5677                 0.3463                 0.4102
 Red. Mass:       2.7966                 1.4612                 1.6107
 IR Intens:       24.507                 16.628                 22.469
 Frequency:       717.32                 745.33                 758.23
 Force Cnst:      0.3820                 0.4707                 0.3860
 Red. Mass:       1.2600                 1.4381                 1.1396
 IR Intens:        8.728                189.124                 72.841
 Frequency:       828.07                 842.47                 879.37
 Force Cnst:      1.8387                 1.3800                 0.6612
 Red. Mass:       4.5512                 3.3000                 1.4512
 IR Intens:       15.654                 18.814                  4.171
 Frequency:       906.59                 922.23                 953.91
 Force Cnst:      0.6377                 0.7196                 1.0064
 Red. Mass:       1.3168                 1.4360                 1.8771
 IR Intens:       14.817                 19.274                  6.666
 Frequency:      1006.73                1025.46                1119.38
 Force Cnst:      1.5653                 1.3423                 1.1442
 Red. Mass:       2.6213                 2.1665                 1.5498
 IR Intens:       27.108                  9.135                  7.476
 Frequency:      1273.06                1294.64                1369.41
 Force Cnst:      1.4001                 1.3191                 1.9937
 Red. Mass:       1.4662                 1.3357                 1.8044
 IR Intens:        0.948                  0.141                 33.739
 Frequency:      1500.18                1590.02                1868.09
 Force Cnst:      9.5818                 6.5897                 9.1559
 Red. Mass:       7.2262                 4.4239                 4.4530
 IR Intens:        9.745                  6.167                  1.801
 Frequency:      3183.86                3205.08                3239.85
 Force Cnst:      6.4941                 6.6121                 6.7608
 Red. Mass:       1.0873                 1.0925                 1.0932
 IR Intens:        7.118                 21.588                 11.252
 Frequency:      3281.62                3317.51                3436.60
 Force Cnst:      6.9771                 7.1349                 7.9767
 Red. Mass:       1.0996                 1.1003                 1.1463
 IR Intens:        5.254                 29.287                 16.725

 STANDARD THERMODYNAMIC QUANTITIES AT   298.15 K  AND     1.00 ATM

   This Molecule has  2 Imaginary Frequencies
   Zero point vibrational energy:       60.365 kcal/mol

   Atom    1 Element C  Has Mass   12.00000
   Atom    2 Element C  Has Mass   12.00000
   Atom    3 Element C  Has Mass   12.00000
   Atom    4 Element C  Has Mass   12.00000
   Atom    5 Element C  Has Mass   12.00000
   Atom    6 Element N  Has Mass   14.00307
   Atom    7 Element H  Has Mass    1.00783
   Atom    8 Element H  Has Mass    1.00783
   Atom    9 Element H  Has Mass    1.00783
   Atom   10 Element H  Has Mass    1.00783
   Atom   11 Element H  Has Mass    1.00783
   Atom   12 Element C  Has Mass   12.00000
   Atom   13 Element H  Has Mass    1.00783
   Molecular Mass:    92.050050 amu
   Principal axes and moments of inertia in amu*Bohr^2:
                             1           2           3
    Eigenvalues --      252.66495  1146.61413  1294.01901
          X              -0.40049    -0.59850     0.69384
          Y               0.85571    -0.51508     0.04962
          Z               0.32768     0.61359     0.71842
   Rotational Symmetry Number is   1
   The Molecule is an Asymmetric Top
   Translational Enthalpy:        0.889 kcal/mol
   Rotational Enthalpy:           0.889 kcal/mol
   Vibrational Enthalpy:         62.383 kcal/mol
   gas constant (RT):             0.592 kcal/mol
   Translational Entropy:        39.471  cal/mol.K
   Rotational Entropy:           27.418  cal/mol.K
   Vibrational Entropy:          11.434  cal/mol.K

   Total Enthalpy:               64.753 kcal/mol
   Total Entropy:                78.324  cal/mol.K

 Total job time:  290.42s(wall), 235.78s(cpu)
        *  Thank you very much for using Q-Chem.  Have a nice day.  *
