 Q-Chem 5.0, Q-Chem, Inc., Pleasanton, CA (2017)
 Q-Chem 5.0.2 for Intel X86 EM64T Linux

User input:
--------------------------------------------------------------
$molecule
0 2
C        0.6060057802   -0.0186178401    0.5950744668
C        0.3906363253   -1.3795835931   -0.9757393698
C        0.7742422508   -2.5450140813   -0.7822098259
C       -1.1602887521    1.3628911027    0.3450105067
C        0.0640880387    1.8887730565   -0.2491011628
N        1.1053273853    1.0956203168   -0.0826729990
H        1.2908033431   -0.6136806163    1.1859302175
H       -0.0320508376   -0.6800509175   -1.6740583659
H        1.1772517800   -3.4276000322   -0.3335559408
H       -2.1329948193    1.8382049728    0.3324637282
H        0.1609939778    2.8319264200   -0.7792430142
C       -0.8137295206    0.1667861185    0.9043831784
H       -1.4419835203   -0.5358425256    1.4356885702
$end

$rem
method                b3lyp
basis                 6-31+g(d,p)
unrestricted          true
symmetry              off
sym_ignore            true
incdft                false
incfock               0
scf_convergence       8
thresh                14
jobtype               freq
scf_guess             read
scf_algorithm         diis
max_scf_cycles        100
$end

--------------------------------------------------------------

             Standard Nuclear Orientation (Angstroms)
    I     Atom           X                Y                Z
 ----------------------------------------------------------------
    1      C       0.6060057802    -0.0186178401     0.5950744668
    2      C       0.3906363253    -1.3795835931    -0.9757393698
    3      C       0.7742422508    -2.5450140813    -0.7822098259
    4      C      -1.1602887521     1.3628911027     0.3450105067
    5      C       0.0640880387     1.8887730565    -0.2491011628
    6      N       1.1053273853     1.0956203168    -0.0826729990
    7      H       1.2908033431    -0.6136806163     1.1859302175
    8      H      -0.0320508376    -0.6800509175    -1.6740583659
    9      H       1.1772517800    -3.4276000322    -0.3335559408
   10      H      -2.1329948193     1.8382049728     0.3324637282
   11      H       0.1609939778     2.8319264200    -0.7792430142
   12      C      -0.8137295206     0.1667861185     0.9043831784
   13      H      -1.4419835203    -0.5358425256     1.4356885702
 ----------------------------------------------------------------

    2    -286.8437207396      5.18E-10 Convergence criterion met
 Total energy in the final basis set = -286.84372074

                    Orbital Energies (a.u.)
 --------------------------------------------------------------

 Alpha MOs
 -- Occupied --
-14.326 -10.247 -10.233 -10.230 -10.226 -10.205 -10.202  -0.959
 -0.784  -0.772  -0.720  -0.590  -0.572  -0.563  -0.521  -0.503
 -0.421  -0.416  -0.406  -0.390  -0.326  -0.311  -0.274  -0.256
 -0.220

 Beta MOs
 -- Occupied --
-14.327 -10.240 -10.232 -10.229 -10.219 -10.205 -10.201  -0.954
 -0.775  -0.768  -0.707  -0.582  -0.567  -0.557  -0.519  -0.498
 -0.416  -0.408  -0.399  -0.383  -0.308  -0.303  -0.274  -0.252

          Ground-State Mulliken Net Atomic Charges

     Atom                 Charge (a.u.)    Spin (a.u.)
  --------------------------------------------------------
      1 C                    -0.074082       0.427291
      2 C                    -0.058452      -0.231921
      3 C                    -0.184929       0.566201
      4 C                    -0.014392       0.078835
      5 C                    -0.139145       0.262285
      6 N                    -0.226024      -0.093505
      7 H                     0.149138      -0.022386
      8 H                     0.185887       0.029180
      9 H                     0.181299      -0.020991
     10 H                     0.133159      -0.004618
     11 H                     0.130875      -0.013045
     12 C                    -0.219749       0.025979
     13 H                     0.136414      -0.003304
  --------------------------------------------------------
  Sum of atomic charges =    -0.000000

                    Cartesian Multipole Moments
 -----------------------------------------------------------------
    Charge (ESU x 10^10)
                -0.0000
    Dipole Moment (Debye)
         X      -1.7079      Y      -1.4299      Z       0.5684
       Tot       2.2988
    Quadrupole Moments (Debye-Ang)
        XX     -44.6561     XY      -6.0070     YY     -35.7672
        XZ       1.4664     YZ      -3.4826     ZZ     -42.0961

 Frequency:      -573.59                  65.61                 134.10
 Force Cnst:      1.6369                 0.0066                 0.0443
 Red. Mass:       8.4444                 2.5842                 4.1840
 IR Intens:        3.051                  1.123                  1.746
 Frequency:       201.10                 259.53                 511.61
 Force Cnst:      0.0724                 0.1289                 0.2921
 Red. Mass:       3.0367                 3.2487                 1.8939
 IR Intens:        0.704                  0.658                 39.127
 Frequency:       567.22                 602.31                 619.22
 Force Cnst:      0.4099                 0.4927                 0.4602
 Red. Mass:       2.1624                 2.3051                 2.0371
 IR Intens:       30.416                 52.258                 26.016
 Frequency:       746.18                 754.03                 834.59
 Force Cnst:      0.3878                 0.3742                 2.0422
 Red. Mass:       1.1822                 1.1170                 4.9762
 IR Intens:      100.295                 72.609                  1.668
 Frequency:       862.06                 875.05                 893.94
 Force Cnst:      0.9647                 0.8149                 0.5929
 Red. Mass:       2.2032                 1.8064                 1.2592
 IR Intens:        6.956                 19.055                  2.167
 Frequency:       919.15                 955.18                 970.14
 Force Cnst:      0.6892                 0.7035                 0.9683
 Red. Mass:       1.3846                 1.3087                 1.7462
 IR Intens:        2.137                  7.628                  0.637
 Frequency:      1040.22                1054.26                1129.16
 Force Cnst:      1.1471                 1.3794                 1.4779
 Red. Mass:       1.7992                 2.1065                 1.9674
 IR Intens:       10.455                 37.414                  6.094
 Frequency:      1276.01                1292.97                1373.71
 Force Cnst:      1.6745                 1.4656                 2.1812
 Red. Mass:       1.7455                 1.4879                 1.9618
 IR Intens:        1.629                  0.813                 25.784
 Frequency:      1450.33                1568.41                1826.86
 Force Cnst:      5.9980                 5.9236                 8.7004
 Red. Mass:       4.8398                 4.0871                 4.4247
 IR Intens:       46.777                 12.445                  1.217
 Frequency:      3204.34                3234.89                3241.25
 Force Cnst:      6.6064                 6.7198                 6.7572
 Red. Mass:       1.0920                 1.0899                 1.0917
 IR Intens:       14.775                  0.115                  8.035
 Frequency:      3261.93                3336.00                3448.51
 Force Cnst:      6.9278                 7.2257                 8.0536
 Red. Mass:       1.1051                 1.1020                 1.1494
 IR Intens:        3.218                 30.493                 39.042

 STANDARD THERMODYNAMIC QUANTITIES AT   298.15 K  AND     1.00 ATM

   This Molecule has  1 Imaginary Frequencies
   Zero point vibrational energy:       60.771 kcal/mol

   Atom    1 Element C  Has Mass   12.00000
   Atom    2 Element C  Has Mass   12.00000
   Atom    3 Element C  Has Mass   12.00000
   Atom    4 Element C  Has Mass   12.00000
   Atom    5 Element C  Has Mass   12.00000
   Atom    6 Element N  Has Mass   14.00307
   Atom    7 Element H  Has Mass    1.00783
   Atom    8 Element H  Has Mass    1.00783
   Atom    9 Element H  Has Mass    1.00783
   Atom   10 Element H  Has Mass    1.00783
   Atom   11 Element H  Has Mass    1.00783
   Atom   12 Element C  Has Mass   12.00000
   Atom   13 Element H  Has Mass    1.00783
   Molecular Mass:    92.050050 amu
   Principal axes and moments of inertia in amu*Bohr^2:
                             1           2           3
    Eigenvalues --      296.73830   905.96217  1020.97372
          X              -0.26643     0.84225     0.46865
          Y               0.93484     0.34421    -0.08715
          Z               0.23471    -0.41489     0.87908
   Rotational Symmetry Number is   1
   The Molecule is an Asymmetric Top
   Translational Enthalpy:        0.889 kcal/mol
   Rotational Enthalpy:           0.889 kcal/mol
   Vibrational Enthalpy:         63.221 kcal/mol
   gas constant (RT):             0.592 kcal/mol
   Translational Entropy:        39.471  cal/mol.K
   Rotational Entropy:           27.109  cal/mol.K
   Vibrational Entropy:          14.764  cal/mol.K

   Total Enthalpy:               65.591 kcal/mol
   Total Entropy:                81.343  cal/mol.K

 Total job time:  656.49s(wall), 538.26s(cpu)
        *  Thank you very much for using Q-Chem.  Have a nice day.  *
