 Q-Chem 5.0, Q-Chem, Inc., Pleasanton, CA (2017)
 Q-Chem 5.0.2 for Intel X86 EM64T Linux

User input:
--------------------------------------------------------------
$molecule
0 2
C        0.6110081393   -0.0137257113    0.6057377318
C        0.3864382092   -1.3731503347   -0.9765884753
C        0.7670844458   -2.5379409551   -0.7909206097
C       -1.1584501724    1.3547757804    0.3390998713
C        0.0665095905    1.8800788300   -0.2509127173
N        1.1121290986    1.0954479934   -0.0751608764
H        1.2948267095   -0.6123601240    1.1954586507
H       -0.0410925599   -0.6650820185   -1.6626198813
H        1.1704279262   -3.4184166535   -0.3381121691
H       -2.1336609040    1.8256763788    0.3163194240
H        0.1603063057    2.8206692435   -0.7882994026
C       -0.8100809808    0.1655830376    0.9076075713
H       -1.4371443761   -0.5377430855    1.4403608719
$end

$rem
method                b3lyp
basis                 6-31+g(d,p)
unrestricted          true
symmetry              off
sym_ignore            true
incdft                false
incfock               0
scf_convergence       8
thresh                14
jobtype               freq
scf_guess             read
scf_algorithm         diis
max_scf_cycles        100
$end

--------------------------------------------------------------

             Standard Nuclear Orientation (Angstroms)
    I     Atom           X                Y                Z
 ----------------------------------------------------------------
    1      C       0.6110081393    -0.0137257113     0.6057377318
    2      C       0.3864382092    -1.3731503347    -0.9765884753
    3      C       0.7670844458    -2.5379409551    -0.7909206097
    4      C      -1.1584501724     1.3547757804     0.3390998713
    5      C       0.0665095905     1.8800788300    -0.2509127173
    6      N       1.1121290986     1.0954479934    -0.0751608764
    7      H       1.2948267095    -0.6123601240     1.1954586507
    8      H      -0.0410925599    -0.6650820185    -1.6626198813
    9      H       1.1704279262    -3.4184166535    -0.3381121691
   10      H      -2.1336609040     1.8256763788     0.3163194240
   11      H       0.1603063057     2.8206692435    -0.7882994026
   12      C      -0.8100809808     0.1655830376     0.9076075713
   13      H      -1.4371443761    -0.5377430855     1.4403608719
 ----------------------------------------------------------------

    2    -286.8436882745      1.98E-09 Convergence criterion met
 Total energy in the final basis set = -286.84368827

                    Orbital Energies (a.u.)
 --------------------------------------------------------------

 Alpha MOs
 -- Occupied --
-14.326 -10.247 -10.233 -10.229 -10.226 -10.206 -10.202  -0.960
 -0.784  -0.773  -0.721  -0.589  -0.572  -0.563  -0.521  -0.503
 -0.421  -0.416  -0.406  -0.390  -0.326  -0.311  -0.275  -0.256
 -0.220

 Beta MOs
 -- Occupied --
-14.327 -10.241 -10.231 -10.229 -10.218 -10.205 -10.201  -0.955
 -0.776  -0.769  -0.707  -0.582  -0.567  -0.557  -0.519  -0.498
 -0.416  -0.408  -0.399  -0.382  -0.308  -0.303  -0.275  -0.253

          Ground-State Mulliken Net Atomic Charges

     Atom                 Charge (a.u.)    Spin (a.u.)
  --------------------------------------------------------
      1 C                    -0.075994       0.432580
      2 C                    -0.057183      -0.227783
      3 C                    -0.185990       0.550428
      4 C                    -0.014062       0.078577
      5 C                    -0.139664       0.269288
      6 N                    -0.226143      -0.095918
      7 H                     0.148481      -0.022582
      8 H                     0.185805       0.028554
      9 H                     0.180836      -0.020186
     10 H                     0.133363      -0.004634
     11 H                     0.130577      -0.013454
     12 C                    -0.216627       0.028609
     13 H                     0.136601      -0.003479
  --------------------------------------------------------
  Sum of atomic charges =     0.000000

                    Cartesian Multipole Moments
 -----------------------------------------------------------------
    Charge (ESU x 10^10)
                 0.0000
    Dipole Moment (Debye)
         X      -1.7245      Y      -1.4213      Z       0.5728
       Tot       2.3070
    Quadrupole Moments (Debye-Ang)
        XX     -44.6514     XY      -5.9871     YY     -35.8876
        XZ       1.4753     YZ      -3.5469     ZZ     -42.0933

 Frequency:      -561.77                  38.34                 129.77
 Force Cnst:      1.5976                 0.0022                 0.0414
 Red. Mass:       8.5922                 2.5667                 4.1754
 IR Intens:        2.219                  1.023                  1.581
 Frequency:       198.44                 253.07                 517.41
 Force Cnst:      0.0732                 0.1274                 0.3227
 Red. Mass:       3.1551                 3.3774                 2.0460
 IR Intens:        0.858                  0.505                 28.131
 Frequency:       569.54                 604.86                 620.46
 Force Cnst:      0.4033                 0.4702                 0.4479
 Red. Mass:       2.1105                 2.1813                 1.9748
 IR Intens:       28.733                 62.862                 29.848
 Frequency:       748.73                 755.25                 833.86
 Force Cnst:      0.3869                 0.3775                 1.9575
 Red. Mass:       1.1712                 1.1234                 4.7782
 IR Intens:       98.000                 74.541                  1.761
 Frequency:       862.74                 876.34                 895.48
 Force Cnst:      0.9164                 0.8501                 0.5974
 Red. Mass:       2.0896                 1.8788                 1.2644
 IR Intens:        7.020                 21.996                  1.531
 Frequency:       921.91                 954.65                 971.24
 Force Cnst:      0.6894                 0.7021                 0.9740
 Red. Mass:       1.3767                 1.3075                 1.7526
 IR Intens:        2.600                  7.182                  0.565
 Frequency:      1042.70                1057.98                1132.57
 Force Cnst:      1.1368                 1.4034                 1.5077
 Red. Mass:       1.7746                 2.1281                 1.9949
 IR Intens:        9.816                 37.540                  6.411
 Frequency:      1277.57                1296.60                1375.91
 Force Cnst:      1.7456                 1.4272                 2.1871
 Red. Mass:       1.8152                 1.4408                 1.9608
 IR Intens:        1.775                  0.883                 26.257
 Frequency:      1455.84                1574.37                1842.64
 Force Cnst:      5.9537                 5.9954                 8.7929
 Red. Mass:       4.7677                 4.1054                 4.3954
 IR Intens:       46.018                 12.706                  1.041
 Frequency:      3194.20                3228.84                3236.33
 Force Cnst:      6.5654                 6.6966                 6.7348
 Red. Mass:       1.0922                 1.0902                 1.0914
 IR Intens:       15.838                  0.422                  7.713
 Frequency:      3257.59                3340.29                3448.54
 Force Cnst:      6.9114                 7.2399                 8.0761
 Red. Mass:       1.1054                 1.1013                 1.1526
 IR Intens:        3.104                 31.488                 35.964

 STANDARD THERMODYNAMIC QUANTITIES AT   298.15 K  AND     1.00 ATM

   This Molecule has  1 Imaginary Frequencies
   Zero point vibrational energy:       60.777 kcal/mol

   Atom    1 Element C  Has Mass   12.00000
   Atom    2 Element C  Has Mass   12.00000
   Atom    3 Element C  Has Mass   12.00000
   Atom    4 Element C  Has Mass   12.00000
   Atom    5 Element C  Has Mass   12.00000
   Atom    6 Element N  Has Mass   14.00307
   Atom    7 Element H  Has Mass    1.00783
   Atom    8 Element H  Has Mass    1.00783
   Atom    9 Element H  Has Mass    1.00783
   Atom   10 Element H  Has Mass    1.00783
   Atom   11 Element H  Has Mass    1.00783
   Atom   12 Element C  Has Mass   12.00000
   Atom   13 Element H  Has Mass    1.00783
   Molecular Mass:    92.050050 amu
   Principal axes and moments of inertia in amu*Bohr^2:
                             1           2           3
    Eigenvalues --      298.59705   901.66702  1014.86110
          X              -0.26442     0.84538     0.46413
          Y               0.93489     0.34285    -0.09186
          Z               0.23678    -0.40962     0.88099
   Rotational Symmetry Number is   1
   The Molecule is an Asymmetric Top
   Translational Enthalpy:        0.889 kcal/mol
   Rotational Enthalpy:           0.889 kcal/mol
   Vibrational Enthalpy:         63.269 kcal/mol
   gas constant (RT):             0.592 kcal/mol
   Translational Entropy:        39.471  cal/mol.K
   Rotational Entropy:           27.104  cal/mol.K
   Vibrational Entropy:          15.922  cal/mol.K

   Total Enthalpy:               65.639 kcal/mol
   Total Entropy:                82.497  cal/mol.K

 Total job time:  630.14s(wall), 537.40s(cpu)
        *  Thank you very much for using Q-Chem.  Have a nice day.  *
