 Q-Chem 5.0, Q-Chem, Inc., Pleasanton, CA (2017)
 Q-Chem 5.0.2 for Intel X86 EM64T Linux

User input:
--------------------------------------------------------------
$molecule
0 2
C        0.1754950381   -0.1395226424    0.5932997691
C        0.6250692464   -1.7171176984   -1.0565206041
C        1.2895196168   -2.7599319278   -1.1328759000
C       -1.1774725144    1.6782107003    0.5259900210
C        0.0355371764    1.8256200037   -0.2928525200
N        0.8209143001    0.7941523442   -0.2338075946
H        0.7722272405   -0.6455603316    1.3507989620
H        0.0102696871   -1.1032496170   -1.6977822589
H        1.9682781180   -3.5191944885   -0.7994692701
H       -1.9304944349    2.4409214717    0.6883721776
H        0.2684644047    2.6881384868   -0.9122967412
C       -1.1024373152    0.4320294654    1.0748529487
H       -1.7670691321    0.0093166148    1.8142609998
$end

$rem
method                b3lyp
basis                 6-31g(d)
unrestricted          true
symmetry              off
sym_ignore            true
incdft                false
incfock               0
scf_convergence       6
thresh                14
jobtype               sp
scf_guess             read
scf_algorithm         diis
max_scf_cycles        100
stability_analysis    true
max_cis_cycles        100
cis_n_roots           4
$end

--------------------------------------------------------------

             Standard Nuclear Orientation (Angstroms)
    I     Atom           X                Y                Z
 ----------------------------------------------------------------
    1      C       0.1754950381    -0.1395226424     0.5932997691
    2      C       0.6250692464    -1.7171176984    -1.0565206041
    3      C       1.2895196168    -2.7599319278    -1.1328759000
    4      C      -1.1774725144     1.6782107003     0.5259900210
    5      C       0.0355371764     1.8256200037    -0.2928525200
    6      N       0.8209143001     0.7941523442    -0.2338075946
    7      H       0.7722272405    -0.6455603316     1.3507989620
    8      H       0.0102696871    -1.1032496170    -1.6977822589
    9      H       1.9682781180    -3.5191944885    -0.7994692701
   10      H      -1.9304944349     2.4409214717     0.6883721776
   11      H       0.2684644047     2.6881384868    -0.9122967412
   12      C      -1.1024373152     0.4320294654     1.0748529487
   13      H      -1.7670691321     0.0093166148     1.8142609998
 ----------------------------------------------------------------

    2    -286.7982298393      4.75E-09 Convergence criterion met
 Total energy in the final basis set = -286.79822984

         TDDFT/TDA Excitation Energies
 ---------------------------------------------------

 Excited state   1: excitation energy (eV) =    1.9007
 Total energy for state  1:                  -286.72838106 au
    <S**2>     :  0.8829
    Trans. Mom.: -0.0099 X   0.0304 Y  -0.0866 Z
    Strength   :     0.0003968631
    D( 24) --> S(  1) amplitude =  0.9806 beta

 Excited state   2: excitation energy (eV) =    2.2799
 Total energy for state  2:                  -286.71444366 au
    <S**2>     :  0.8353
    Trans. Mom.:  0.0559 X   0.1245 Y   0.0255 Z
    Strength   :     0.0010770879
    D( 23) --> S(  1) amplitude =  0.9845 beta

 Excited state   3: excitation energy (eV) =    3.0428
 Total energy for state  3:                  -286.68640833 au
    <S**2>     :  0.8444
    Trans. Mom.:  0.0130 X  -0.1376 Y  -0.0027 Z
    Strength   :     0.0014237010
    D( 22) --> S(  1) amplitude =  0.9712 beta

 Excited state   4: excitation energy (eV) =    3.2804
 Total energy for state  4:                  -286.67767702 au
    <S**2>     :  0.8936
    Trans. Mom.:  0.2023 X  -0.5342 Y  -0.2071 Z
    Strength   :     0.0296731648
    S(  1) --> V(  1) amplitude = -0.4984 alpha
    D( 21) --> S(  1) amplitude =  0.8238 beta

 ---------------------------------------------------

                    Orbital Energies (a.u.)
 --------------------------------------------------------------

 Alpha MOs
 -- Occupied --
-14.315 -10.238 -10.225 -10.204 -10.200 -10.199 -10.195  -0.950
 -0.764  -0.753  -0.713  -0.571  -0.558  -0.556  -0.511  -0.474
 -0.422  -0.403  -0.396  -0.369  -0.304  -0.284  -0.262  -0.248
 -0.218

 Beta MOs
 -- Occupied --
-14.316 -10.229 -10.222 -10.203 -10.199 -10.196 -10.195  -0.945
 -0.761  -0.747  -0.697  -0.566  -0.554  -0.548  -0.509  -0.470
 -0.416  -0.397  -0.388  -0.356  -0.286  -0.282  -0.260  -0.245

          Ground-State Mulliken Net Atomic Charges

     Atom                 Charge (a.u.)    Spin (a.u.)
  --------------------------------------------------------
      1 C                    -0.014473       0.592774
      2 C                    -0.159884      -0.193043
      3 C                    -0.193365       0.354048
      4 C                    -0.149296       0.181415
      5 C                     0.049929       0.235258
      6 N                    -0.382155      -0.077892
      7 H                     0.172032      -0.031751
      8 H                     0.207953       0.018555
      9 H                     0.189497      -0.010177
     10 H                     0.141753      -0.007902
     11 H                     0.143669      -0.011863
     12 C                    -0.149498      -0.049633
     13 H                     0.143840       0.000211
  --------------------------------------------------------
  Sum of atomic charges =    -0.000000

                    Cartesian Multipole Moments
 -----------------------------------------------------------------
    Charge (ESU x 10^10)
                -0.0000
    Dipole Moment (Debye)
         X      -1.2558      Y      -0.1278      Z       0.8520
       Tot       1.5230
    Quadrupole Moments (Debye-Ang)
        XX     -40.9302     XY      -5.4891     YY     -34.2530
        XZ       0.3608     YZ      -1.6065     ZZ     -39.6051

 Total job time:  137.66s(wall), 75.18s(cpu)
        *  Thank you very much for using Q-Chem.  Have a nice day.  *
