 Q-Chem 5.0, Q-Chem, Inc., Pleasanton, CA (2017)
 Q-Chem 5.0.2 for Intel X86 EM64T Linux

User input:
--------------------------------------------------------------
$molecule
0 2
C        0.6110081393   -0.0137257113    0.6057377318
C        0.3864382092   -1.3731503347   -0.9765884753
C        0.7670844458   -2.5379409551   -0.7909206097
C       -1.1584501724    1.3547757804    0.3390998713
C        0.0665095905    1.8800788300   -0.2509127173
N        1.1121290986    1.0954479934   -0.0751608764
H        1.2948267095   -0.6123601240    1.1954586507
H       -0.0410925599   -0.6650820185   -1.6626198813
H        1.1704279262   -3.4184166535   -0.3381121691
H       -2.1336609040    1.8256763788    0.3163194240
H        0.1603063057    2.8206692435   -0.7882994026
C       -0.8100809808    0.1655830376    0.9076075713
H       -1.4371443761   -0.5377430855    1.4403608719
$end

$rem
method                b3lyp
basis                 6-31+g(d,p)
unrestricted          true
symmetry              off
sym_ignore            true
incdft                false
incfock               0
scf_convergence       8
thresh                14
jobtype               sp
scf_guess             core
scf_guess_mix         5
scf_algorithm         diis
max_scf_cycles        100
$end

--------------------------------------------------------------

             Standard Nuclear Orientation (Angstroms)
    I     Atom           X                Y                Z
 ----------------------------------------------------------------
    1      C       0.6110081393    -0.0137257113     0.6057377318
    2      C       0.3864382092    -1.3731503347    -0.9765884753
    3      C       0.7670844458    -2.5379409551    -0.7909206097
    4      C      -1.1584501724     1.3547757804     0.3390998713
    5      C       0.0665095905     1.8800788300    -0.2509127173
    6      N       1.1121290986     1.0954479934    -0.0751608764
    7      H       1.2948267095    -0.6123601240     1.1954586507
    8      H      -0.0410925599    -0.6650820185    -1.6626198813
    9      H       1.1704279262    -3.4184166535    -0.3381121691
   10      H      -2.1336609040     1.8256763788     0.3163194240
   11      H       0.1603063057     2.8206692435    -0.7882994026
   12      C      -0.8100809808     0.1655830376     0.9076075713
   13      H      -1.4371443761    -0.5377430855     1.4403608719
 ----------------------------------------------------------------

   24    -286.8436882744      4.29E-09 Convergence criterion met
 Total energy in the final basis set = -286.84368827

                    Orbital Energies (a.u.)
 --------------------------------------------------------------

 Alpha MOs
 -- Occupied --
-14.326 -10.247 -10.233 -10.229 -10.226 -10.206 -10.202  -0.960
 -0.784  -0.773  -0.721  -0.589  -0.572  -0.563  -0.521  -0.503
 -0.421  -0.416  -0.406  -0.390  -0.326  -0.311  -0.275  -0.256
 -0.220

 Beta MOs
 -- Occupied --
-14.327 -10.241 -10.231 -10.229 -10.218 -10.205 -10.201  -0.955
 -0.776  -0.769  -0.707  -0.582  -0.567  -0.557  -0.519  -0.498
 -0.416  -0.408  -0.399  -0.382  -0.308  -0.303  -0.275  -0.253

          Ground-State Mulliken Net Atomic Charges

     Atom                 Charge (a.u.)    Spin (a.u.)
  --------------------------------------------------------
      1 C                    -0.075994       0.432579
      2 C                    -0.057183      -0.227786
      3 C                    -0.185990       0.550431
      4 C                    -0.014062       0.078574
      5 C                    -0.139664       0.269289
      6 N                    -0.226143      -0.095918
      7 H                     0.148481      -0.022582
      8 H                     0.185805       0.028555
      9 H                     0.180836      -0.020186
     10 H                     0.133363      -0.004634
     11 H                     0.130577      -0.013454
     12 C                    -0.216627       0.028612
     13 H                     0.136601      -0.003479
  --------------------------------------------------------
  Sum of atomic charges =     0.000000

                    Cartesian Multipole Moments
 -----------------------------------------------------------------
    Charge (ESU x 10^10)
                 0.0000
    Dipole Moment (Debye)
         X      -1.7245      Y      -1.4213      Z       0.5728
       Tot       2.3070
    Quadrupole Moments (Debye-Ang)
        XX     -44.6514     XY      -5.9871     YY     -35.8876
        XZ       1.4753     YZ      -3.5469     ZZ     -42.0933

 Total job time:  72.64s(wall), 120.30s(cpu)
        *  Thank you very much for using Q-Chem.  Have a nice day.  *
