 Q-Chem 5.0, Q-Chem, Inc., Pleasanton, CA (2017)
 Q-Chem 5.0.2 for Intel X86 EM64T Linux

User input:
--------------------------------------------------------------
$molecule
0 2
C        0.6110081393   -0.0137257113    0.6057377318
C        0.3864382092   -1.3731503347   -0.9765884753
C        0.7670844458   -2.5379409551   -0.7909206097
C       -1.1584501724    1.3547757804    0.3390998713
C        0.0665095905    1.8800788300   -0.2509127173
N        1.1121290986    1.0954479934   -0.0751608764
H        1.2948267095   -0.6123601240    1.1954586507
H       -0.0410925599   -0.6650820185   -1.6626198813
H        1.1704279262   -3.4184166535   -0.3381121691
H       -2.1336609040    1.8256763788    0.3163194240
H        0.1603063057    2.8206692435   -0.7882994026
C       -0.8100809808    0.1655830376    0.9076075713
H       -1.4371443761   -0.5377430855    1.4403608719
$end

$rem
method                b3lyp
basis                 6-31g(d)
unrestricted          true
symmetry              off
sym_ignore            true
incdft                false
incfock               0
scf_convergence       8
thresh                14
jobtype               sp
scf_guess             read
scf_algorithm         diis
max_scf_cycles        100
$end

--------------------------------------------------------------

             Standard Nuclear Orientation (Angstroms)
    I     Atom           X                Y                Z
 ----------------------------------------------------------------
    1      C       0.6110081393    -0.0137257113     0.6057377318
    2      C       0.3864382092    -1.3731503347    -0.9765884753
    3      C       0.7670844458    -2.5379409551    -0.7909206097
    4      C      -1.1584501724     1.3547757804     0.3390998713
    5      C       0.0665095905     1.8800788300    -0.2509127173
    6      N       1.1121290986     1.0954479934    -0.0751608764
    7      H       1.2948267095    -0.6123601240     1.1954586507
    8      H      -0.0410925599    -0.6650820185    -1.6626198813
    9      H       1.1704279262    -3.4184166535    -0.3381121691
   10      H      -2.1336609040     1.8256763788     0.3163194240
   11      H       0.1603063057     2.8206692435    -0.7882994026
   12      C      -0.8100809808     0.1655830376     0.9076075713
   13      H      -1.4371443761    -0.5377430855     1.4403608719
 ----------------------------------------------------------------

    2    -286.8186727392      8.73E-09 Convergence criterion met
 Total energy in the final basis set = -286.81867274

                    Orbital Energies (a.u.)
 --------------------------------------------------------------

 Alpha MOs
 -- Occupied --
-14.309 -10.235 -10.221 -10.217 -10.213 -10.193 -10.190  -0.946
 -0.771  -0.760  -0.709  -0.580  -0.561  -0.553  -0.511  -0.493
 -0.409  -0.404  -0.395  -0.379  -0.314  -0.298  -0.260  -0.243
 -0.207

 Beta MOs
 -- Occupied --
-14.311 -10.228 -10.219 -10.217 -10.206 -10.193 -10.189  -0.941
 -0.763  -0.756  -0.695  -0.573  -0.557  -0.547  -0.509  -0.489
 -0.405  -0.397  -0.387  -0.371  -0.295  -0.290  -0.260  -0.240

          Ground-State Mulliken Net Atomic Charges

     Atom                 Charge (a.u.)    Spin (a.u.)
  --------------------------------------------------------
      1 C                    -0.050025       0.410755
      2 C                    -0.158090      -0.227540
      3 C                    -0.155827       0.559368
      4 C                    -0.159255       0.079984
      5 C                     0.031721       0.261435
      6 N                    -0.377584      -0.090458
      7 H                     0.158394      -0.020973
      8 H                     0.204143       0.029564
      9 H                     0.193476      -0.023024
     10 H                     0.136526      -0.004665
     11 H                     0.140383      -0.013373
     12 C                    -0.106514       0.042334
     13 H                     0.142652      -0.003406
  --------------------------------------------------------
  Sum of atomic charges =    -0.000000

                    Cartesian Multipole Moments
 -----------------------------------------------------------------
    Charge (ESU x 10^10)
                -0.0000
    Dipole Moment (Debye)
         X      -1.6075      Y      -1.4220      Z       0.4268
       Tot       2.1882
    Quadrupole Moments (Debye-Ang)
        XX     -42.8043     XY      -5.4954     YY     -34.5701
        XZ       1.2864     YZ      -3.0003     ZZ     -40.3332

 Total job time:  12.70s(wall), 6.98s(cpu)
        *  Thank you very much for using Q-Chem.  Have a nice day.  *
