 Q-Chem 5.0, Q-Chem, Inc., Pleasanton, CA (2017)
 Q-Chem 5.0.2 for Intel X86 EM64T Linux

User input:
--------------------------------------------------------------
$molecule
0 2
C        0.6110081393   -0.0137257113    0.6057377318
C        0.3864382092   -1.3731503347   -0.9765884753
C        0.7670844458   -2.5379409551   -0.7909206097
C       -1.1584501724    1.3547757804    0.3390998713
C        0.0665095905    1.8800788300   -0.2509127173
N        1.1121290986    1.0954479934   -0.0751608764
H        1.2948267095   -0.6123601240    1.1954586507
H       -0.0410925599   -0.6650820185   -1.6626198813
H        1.1704279262   -3.4184166535   -0.3381121691
H       -2.1336609040    1.8256763788    0.3163194240
H        0.1603063057    2.8206692435   -0.7882994026
C       -0.8100809808    0.1655830376    0.9076075713
H       -1.4371443761   -0.5377430855    1.4403608719
$end

$rem
method                b3lyp
basis                 6-31+g(d,p)
unrestricted          true
symmetry              off
sym_ignore            true
incdft                false
incfock               0
scf_convergence       8
thresh                14
jobtype               ts
scf_guess             read
scf_algorithm         diis
max_scf_cycles        100
geom_opt_max_cycles   500
geom_opt_dmax         100
geom_opt_tol_gradient 10
geom_opt_hessian      read
$end

--------------------------------------------------------------

    2    -286.8436882744      6.26E-10 Convergence criterion met
 Total energy in the final basis set = -286.84368827
   15    -286.8437206430      5.02E-09 Convergence criterion met
 Total energy in the final basis set = -286.84372064

             Standard Nuclear Orientation (Angstroms)
    I     Atom           X                Y                Z
 ----------------------------------------------------------------
    1      C       0.6060057802    -0.0186178401     0.5950744668
    2      C       0.3906363253    -1.3795835931    -0.9757393698
    3      C       0.7742422508    -2.5450140813    -0.7822098259
    4      C      -1.1602887521     1.3628911027     0.3450105067
    5      C       0.0640880387     1.8887730565    -0.2491011628
    6      N       1.1053273853     1.0956203168    -0.0826729990
    7      H       1.2908033431    -0.6136806163     1.1859302175
    8      H      -0.0320508376    -0.6800509175    -1.6740583659
    9      H       1.1772517800    -3.4276000322    -0.3335559408
   10      H      -2.1329948193     1.8382049728     0.3324637282
   11      H       0.1609939778     2.8319264200    -0.7792430142
   12      C      -0.8137295206     0.1667861185     0.9043831784
   13      H      -1.4419835203    -0.5358425256     1.4356885702
 ----------------------------------------------------------------

   11    -286.8437207395      4.42E-09 Convergence criterion met
 Total energy in the final basis set = -286.84372074
 Final energy is   -286.843720739509
 **  OPTIMIZATION CONVERGED  **

                    Orbital Energies (a.u.)
 --------------------------------------------------------------

 Alpha MOs
 -- Occupied --
-14.326 -10.247 -10.233 -10.230 -10.226 -10.205 -10.202  -0.959
 -0.784  -0.772  -0.720  -0.590  -0.572  -0.563  -0.521  -0.503
 -0.421  -0.416  -0.406  -0.390  -0.326  -0.311  -0.274  -0.256
 -0.220

 Beta MOs
 -- Occupied --
-14.327 -10.240 -10.232 -10.229 -10.219 -10.205 -10.201  -0.954
 -0.775  -0.768  -0.707  -0.582  -0.567  -0.557  -0.519  -0.498
 -0.416  -0.408  -0.399  -0.383  -0.308  -0.303  -0.274  -0.252

          Ground-State Mulliken Net Atomic Charges

     Atom                 Charge (a.u.)    Spin (a.u.)
  --------------------------------------------------------
      1 C                    -0.074082       0.427291
      2 C                    -0.058452      -0.231924
      3 C                    -0.184929       0.566205
      4 C                    -0.014392       0.078834
      5 C                    -0.139145       0.262284
      6 N                    -0.226024      -0.093505
      7 H                     0.149138      -0.022386
      8 H                     0.185887       0.029180
      9 H                     0.181299      -0.020991
     10 H                     0.133159      -0.004618
     11 H                     0.130875      -0.013045
     12 C                    -0.219749       0.025979
     13 H                     0.136414      -0.003304
  --------------------------------------------------------
  Sum of atomic charges =    -0.000000

                    Cartesian Multipole Moments
 -----------------------------------------------------------------
    Charge (ESU x 10^10)
                -0.0000
    Dipole Moment (Debye)
         X      -1.7079      Y      -1.4299      Z       0.5684
       Tot       2.2988
    Quadrupole Moments (Debye-Ang)
        XX     -44.6561     XY      -6.0070     YY     -35.7672
        XZ       1.4664     YZ      -3.4826     ZZ     -42.0961

 Total job time:  110.65s(wall), 190.69s(cpu)
        *  Thank you very much for using Q-Chem.  Have a nice day.  *
