 Q-Chem 5.0, Q-Chem, Inc., Pleasanton, CA (2017)
 Q-Chem 5.0.2 for Intel X86 EM64T Linux

User input:
--------------------------------------------------------------
$molecule
0 2
C        1.3518348802    0.6300180924   -0.8207201120
C       -0.0469536888   -1.1294359329    0.2554017478
C       -1.2669836185   -1.1471279889    0.8845487930
C       -1.7778327050    0.1879828857    0.8733815310
C       -0.8505976165    0.9745854136    0.2378035297
N        0.2130458096    0.1704271542   -0.1427021702
H        1.3223076348    1.7056819527   -1.0164330487
H        0.6663571469   -1.9129104959    0.0475368735
H       -1.7438704792   -2.0201679127    1.3097119443
H       -2.7185409356    0.5247103126    1.2866645691
H       -0.8405711559    2.0331380075    0.0187636744
C        2.3793635754   -0.0974870051   -1.2112937241
H        3.3124411527    0.0805855165   -1.7226636078
$end

$rem
method                b3lyp
basis                 6-31g(d)
unrestricted          true
symmetry              off
sym_ignore            true
incdft                false
incfock               0
scf_convergence       8
thresh                14
jobtype               opt
scf_guess             read
scf_algorithm         diis
max_scf_cycles        100
geom_opt_tol_gradient 600
geom_opt_tol_displacement 2400
geom_opt_tol_energy   200
geom_opt_max_cycles   100
$end

--------------------------------------------------------------

    2    -286.8723920416      4.62E-10 Convergence criterion met
 Total energy in the final basis set = -286.87239204

             Standard Nuclear Orientation (Angstroms)
    I     Atom           X                Y                Z
 ----------------------------------------------------------------
    1      C       1.3515045485     0.6308205906    -0.8215204308
    2      C      -0.0457978622    -1.1283386206     0.2555518247
    3      C      -1.2665964779    -1.1472922365     0.8835726835
    4      C      -1.7778387871     0.1878024413     0.8746942548
    5      C      -0.8510653727     0.9745968433     0.2387017627
    6      N       0.2131019489     0.1716872579    -0.1426790746
    7      H       1.3224642021     1.7059833631    -1.0182654520
    8      H       0.6683068868    -1.9112237452     0.0478243740
    9      H      -1.7442094349    -2.0207712914     1.3070034220
   10      H      -2.7188802973     0.5247845047     1.2879401216
   11      H      -0.8417075700     2.0327506777     0.0190480597
   12      C       2.3787446279    -0.0982848201    -1.2098168231
   13      H       3.3119735878     0.0774850349    -1.7220547226
 ----------------------------------------------------------------

   11    -286.8723940000      9.15E-09 Convergence criterion met
 Total energy in the final basis set = -286.87239400
 Final energy is   -286.872393999999
 **  OPTIMIZATION CONVERGED  **

                    Orbital Energies (a.u.)
 --------------------------------------------------------------

 Alpha MOs
 -- Occupied --
-14.392 -10.242 -10.214 -10.205 -10.201 -10.171 -10.170  -0.988
 -0.817  -0.737  -0.720  -0.618  -0.574  -0.545  -0.513  -0.476
 -0.428  -0.423  -0.416  -0.386  -0.374  -0.304  -0.255  -0.224
 -0.210

 Beta MOs
 -- Occupied --
-14.391 -10.243 -10.205 -10.201 -10.198 -10.171 -10.170  -0.987
 -0.812  -0.725  -0.717  -0.606  -0.573  -0.543  -0.500  -0.466
 -0.424  -0.424  -0.414  -0.385  -0.374  -0.301  -0.216  -0.211

          Ground-State Mulliken Net Atomic Charges

     Atom                 Charge (a.u.)    Spin (a.u.)
  --------------------------------------------------------
      1 C                     0.068325      -0.140399
      2 C                     0.037372       0.008922
      3 C                    -0.186757      -0.008675
      4 C                    -0.193225      -0.005370
      5 C                     0.027542      -0.002641
      6 N                    -0.401372       0.019436
      7 H                     0.163130       0.068860
      8 H                     0.154922       0.000525
      9 H                     0.128881       0.000828
     10 H                     0.128610       0.001011
     11 H                     0.144874       0.000099
     12 C                    -0.244522       1.062343
     13 H                     0.172220      -0.004939
  --------------------------------------------------------
  Sum of atomic charges =     0.000000

                    Cartesian Multipole Moments
 -----------------------------------------------------------------
    Charge (ESU x 10^10)
                 0.0000
    Dipole Moment (Debye)
         X       0.8304      Y       0.9964      Z      -0.6198
       Tot       1.4375
    Quadrupole Moments (Debye-Ang)
        XX     -37.6067     XY       0.5391     YY     -36.3944
        XZ      -3.8236     YZ      -1.9934     ZZ     -42.5220

 Total job time:  46.02s(wall), 50.12s(cpu)
        *  Thank you very much for using Q-Chem.  Have a nice day.  *
