 Q-Chem 5.0, Q-Chem, Inc., Pleasanton, CA (2017)
 Q-Chem 5.0.2 for Intel X86 EM64T Linux

User input:
--------------------------------------------------------------
$molecule
0 2
C        1.4248047795    0.8351905861   -0.3608573685
C        0.2641754905   -1.4178065682   -0.2075422499
C       -0.9823267957   -1.0560105798    0.2082138302
C       -1.4531096034    0.2801671230    0.4719680000
C       -0.7560878234    1.4684735380    0.3605923550
N        0.5127386001    1.7692626350   -0.0041128838
H        2.3887301342    1.2820544124   -0.6143378257
H        0.4497371851   -2.4790931123   -0.3605291759
H       -1.7079332310   -1.8526234531    0.3598812301
H       -2.4868337669    0.3703446867    0.7968987782
H       -1.3309948254    2.3624711309    0.6124714574
C        1.3779230141   -0.5422021264   -0.4692217660
H        2.2991768418   -1.0202282729   -0.7934243814
$end

$rem
method                b3lyp
basis                 6-31g(d)
unrestricted          true
symmetry              off
sym_ignore            true
incdft                false
incfock               0
scf_convergence       8
thresh                14
jobtype               opt
scf_guess             read
scf_algorithm         diis
max_scf_cycles        100
geom_opt_tol_gradient 600
geom_opt_tol_displacement 2400
geom_opt_tol_energy   200
geom_opt_max_cycles   100
$end

--------------------------------------------------------------

    2    -286.9243193853      1.18E-09 Convergence criterion met
 Total energy in the final basis set = -286.92431939

             Standard Nuclear Orientation (Angstroms)
    I     Atom           X                Y                Z
 ----------------------------------------------------------------
    1      C       1.4243330476     0.8353186752    -0.3617294800
    2      C       0.2641690410    -1.4179842739    -0.2073411510
    3      C      -0.9824831173    -1.0560135525     0.2076892058
    4      C      -1.4530460449     0.2802210047     0.4709416409
    5      C      -0.7560103225     1.4685461154     0.3600253082
    6      N       0.5132067084     1.7694259604    -0.0028196724
    7      H       2.3884222451     1.2819375364    -0.6150596587
    8      H       0.4502303790    -2.4793493902    -0.3592417902
    9      H      -1.7080833565    -1.8525314255     0.3598344619
   10      H      -2.4866633958     0.3702550429     0.7963183166
   11      H      -1.3305044237     2.3621649106     0.6139710728
   12      C       1.3773576118    -0.5420471616    -0.4697785052
   13      H       2.2990716273    -1.0199434424    -0.7928097489
 ----------------------------------------------------------------

   11    -286.9243206425      9.37E-09 Convergence criterion met
 Total energy in the final basis set = -286.92432064
 Final energy is   -286.924320642512
 **  OPTIMIZATION CONVERGED  **

                    Orbital Energies (a.u.)
 --------------------------------------------------------------

 Alpha MOs
 -- Occupied --
-14.322 -10.232 -10.232 -10.212 -10.211 -10.201 -10.200  -0.922
 -0.818  -0.784  -0.693  -0.667  -0.551  -0.537  -0.518  -0.449
 -0.439  -0.414  -0.394  -0.387  -0.349  -0.322  -0.299  -0.251
 -0.162

 Beta MOs
 -- Occupied --
-14.314 -10.233 -10.233 -10.210 -10.210 -10.196 -10.196  -0.911
 -0.809  -0.777  -0.681  -0.665  -0.546  -0.535  -0.514  -0.447
 -0.438  -0.411  -0.383  -0.373  -0.348  -0.295  -0.276  -0.241

          Ground-State Mulliken Net Atomic Charges

     Atom                 Charge (a.u.)    Spin (a.u.)
  --------------------------------------------------------
      1 C                     0.035763      -0.113342
      2 C                    -0.111062       0.092193
      3 C                    -0.111434       0.095242
      4 C                    -0.131320       0.345871
      5 C                     0.035208      -0.111943
      6 N                    -0.423337       0.386904
      7 H                     0.142589       0.003439
      8 H                     0.141931      -0.006562
      9 H                     0.141902      -0.006710
     10 H                     0.134400      -0.018282
     11 H                     0.142657       0.003369
     12 C                    -0.131662       0.348210
     13 H                     0.134367      -0.018390
  --------------------------------------------------------
  Sum of atomic charges =     0.000000

                    Cartesian Multipole Moments
 -----------------------------------------------------------------
    Charge (ESU x 10^10)
                -0.0000
    Dipole Moment (Debye)
         X      -0.6243      Y      -2.1543      Z       0.0048
       Tot       2.2429
    Quadrupole Moments (Debye-Ang)
        XX     -35.6783     XY      -1.9384     YY     -41.7942
        XZ      -2.5172     YZ       0.7406     ZZ     -42.5255

 Total job time:  40.31s(wall), 51.40s(cpu)
        *  Thank you very much for using Q-Chem.  Have a nice day.  *
