 Q-Chem 5.0, Q-Chem, Inc., Pleasanton, CA (2017)
 Q-Chem 5.0.2 for Intel X86 EM64T Linux

User input:
--------------------------------------------------------------
$molecule
0 2
C        1.3485174303    0.1004741853   -0.3059517649
C        0.5649244532   -1.1341035190   -0.9066400225
C       -0.7874069181   -0.7088204752   -1.4349574475
C       -1.3431652362   -0.0592319809   -0.3077093835
C       -0.6741227207    0.9737531129   -1.1814977656
N        0.6854694200    1.0910346708   -1.2258648573
H        2.4179519964    0.1638830809   -0.4994443889
H        0.9244223605   -2.2031458889   -0.8225417199
H       -0.8729529111   -0.5876057884   -2.5458141753
H       -2.2886639063    0.0475097376    0.2273248330
H       -1.2326452195    1.4825291730   -2.0102280754
C        0.1667749428   -0.3325527267    0.3865020033
H       -0.1438927290   -0.8581122012    1.1785909113
$end

$rem
method                b3lyp
basis                 6-31g(d)
unrestricted          true
symmetry              off
sym_ignore            true
incdft                false
incfock               0
scf_convergence       8
thresh                14
jobtype               opt
scf_guess             read
scf_algorithm         diis
max_scf_cycles        100
geom_opt_tol_gradient 600
geom_opt_tol_displacement 2400
geom_opt_tol_energy   200
geom_opt_max_cycles   100
$end

--------------------------------------------------------------

    2    -286.6813952775      1.45E-09 Convergence criterion met
 Total energy in the final basis set = -286.68139528
   15    -286.7163276994      4.09E-09 Convergence criterion met
 Total energy in the final basis set = -286.71632770
   15    -286.7430280917      7.93E-09 Convergence criterion met
 Total energy in the final basis set = -286.74302809
   14    -286.7636109950      8.78E-09 Convergence criterion met
 Total energy in the final basis set = -286.76361100
   15    -286.7794251500      7.35E-09 Convergence criterion met
 Total energy in the final basis set = -286.77942515
   15    -286.7917398986      6.47E-09 Convergence criterion met
 Total energy in the final basis set = -286.79173990
   15    -286.8017537240      5.50E-09 Convergence criterion met
 Total energy in the final basis set = -286.80175372
   14    -286.8103216547      9.86E-09 Convergence criterion met
   14    -286.8380819019      4.36E-09 Convergence criterion met
 Total energy in the final basis set = -286.83808190
   12    -286.8381963924      7.48E-09 Convergence criterion met
 Total energy in the final basis set = -286.83819639
   13    -286.8382896202      2.93E-09 Convergence criterion met
 Total energy in the final basis set = -286.83828962
   12    -286.8383191550      5.96E-09 Convergence criterion met
 Total energy in the final basis set = -286.83831915
   12    -286.8383306669      4.96E-09 Convergence criterion met
 Total energy in the final basis set = -286.83833067
   10    -286.8383327539      8.75E-09 Convergence criterion met
 Total energy in the final basis set = -286.83833275

             Standard Nuclear Orientation (Angstroms)
    I     Atom           X                Y                Z
 ----------------------------------------------------------------
    1      C       1.1454923309     0.1235839111    -0.4866609275
    2      C       0.5004671595    -1.2766994805    -0.9052278594
    3      C      -0.8172017943    -1.0815102142    -1.4943713196
    4      C      -1.1535330000     0.0445251170    -0.5191625627
    5      C      -0.5667916972     1.2988838070    -1.1553127443
    6      N       0.7162717348     1.3119245648    -1.1804907887
    7      H       2.1861800330     0.0684635664    -0.1838627674
    8      H       1.1608415997    -2.1343557999    -0.9872989849
    9      H      -1.2214567675    -1.3144574502    -2.4767257283
   10      H      -2.1628472110     0.1077287794    -0.1064053187
   11      H      -1.1572304171     2.0563377126    -1.6684637506
   12      C       0.0601493035    -0.4740839946     0.3334251274
   13      H       0.0748696881    -0.7547291388     1.3823257715
 ----------------------------------------------------------------

   10    -286.8383330574      4.94E-09 Convergence criterion met
 Total energy in the final basis set = -286.83833306
 Final energy is   -286.838333057379
 **  OPTIMIZATION CONVERGED  **

                    Orbital Energies (a.u.)
 --------------------------------------------------------------

 Alpha MOs
 -- Occupied --
-14.320 -10.224 -10.220 -10.210 -10.209 -10.208 -10.206  -0.968
 -0.856  -0.749  -0.664  -0.606  -0.571  -0.535  -0.517  -0.467
 -0.439  -0.405  -0.400  -0.356  -0.336  -0.298  -0.274  -0.256
 -0.182

 Beta MOs
 -- Occupied --
-14.319 -10.222 -10.219 -10.211 -10.209 -10.207 -10.193  -0.964
 -0.850  -0.741  -0.652  -0.602  -0.567  -0.528  -0.511  -0.461
 -0.434  -0.402  -0.393  -0.348  -0.332  -0.292  -0.262  -0.251

          Ground-State Mulliken Net Atomic Charges

     Atom                 Charge (a.u.)    Spin (a.u.)
  --------------------------------------------------------
      1 C                    -0.019070       0.097642
      2 C                    -0.163765      -0.096075
      3 C                    -0.066284       0.887940
      4 C                    -0.258091      -0.065728
      5 C                     0.088753       0.047609
      6 N                    -0.342325       0.038838
      7 H                     0.151415       0.002822
      8 H                     0.147262       0.005270
      9 H                     0.136227      -0.019238
     10 H                     0.142828       0.022758
     11 H                     0.143074       0.001350
     12 C                    -0.108130       0.077570
     13 H                     0.148105      -0.000757
  --------------------------------------------------------
  Sum of atomic charges =     0.000000

                    Cartesian Multipole Moments
 -----------------------------------------------------------------
    Charge (ESU x 10^10)
                -0.0000
    Dipole Moment (Debye)
         X      -1.1354      Y      -1.4447      Z       0.9063
       Tot       2.0488
    Quadrupole Moments (Debye-Ang)
        XX     -38.4031     XY      -4.5085     YY     -42.7293
        XZ       3.1096     YZ       1.6965     ZZ     -40.8421

 Total job time:  773.67s(wall), 918.60s(cpu)
        *  Thank you very much for using Q-Chem.  Have a nice day.  *
