 Q-Chem 5.0, Q-Chem, Inc., Pleasanton, CA (2017)
 Q-Chem 5.0.2 for Intel X86 EM64T Linux

User input:
--------------------------------------------------------------
$molecule
0 2
C        1.5336459567    0.3216897092   -0.9094403748
C       -0.0491294848   -2.0293657852    0.2818656740
C       -1.1767736480   -1.3349723737    0.3493905167
C       -1.3609226921    0.1072737658    0.4979806226
C       -0.4070581013    1.0618019368    0.4871228615
N        0.9845908033    0.8367175807    0.4055343678
H        1.6026508419   -0.6265047528   -1.4128822237
H        0.1965296989   -3.0826993469    0.2159390351
H       -2.1133099855   -1.9084212119    0.3079462464
H       -2.3843576097    0.4380348107    0.6558489079
H       -0.6874459602    2.1011609889    0.6609662928
C        1.7300491455    1.5653256729   -0.6826268898
H        2.1315310352    2.5499590055   -0.8576450367
$end

$rem
method                b3lyp
basis                 6-31g(d)
unrestricted          true
symmetry              off
sym_ignore            true
incdft                false
incfock               0
scf_convergence       8
thresh                14
jobtype               opt
scf_guess             read
scf_algorithm         diis
max_scf_cycles        100
geom_opt_tol_gradient 600
geom_opt_tol_displacement 2400
geom_opt_tol_energy   200
geom_opt_max_cycles   100
$end

--------------------------------------------------------------

    2    -286.7239556821      2.01E-09 Convergence criterion met
 Total energy in the final basis set = -286.72395568

             Standard Nuclear Orientation (Angstroms)
    I     Atom           X                Y                Z
 ----------------------------------------------------------------
    1      C       1.5353097991     0.3210594934    -0.9077508908
    2      C      -0.0503256122    -2.0306160826     0.2806679417
    3      C      -1.1769245705    -1.3347949495     0.3479045844
    4      C      -1.3600987320     0.1073777982     0.4989464438
    5      C      -0.4059938636     1.0619390929     0.4888538254
    6      N       0.9858193305     0.8377052714     0.4066275575
    7      H       1.6070361707    -0.6276952775    -1.4096718029
    8      H       0.1945238570    -3.0839673615     0.2146667904
    9      H      -2.1141418971    -1.9073095549     0.3072443879
   10      H      -2.3836256638     0.4383209568     0.6558810026
   11      H      -0.6873192269     2.1011270265     0.6622773659
   12      C       1.7285010776     1.5657889363    -0.6839746767
   13      H       2.1272393311     2.5510646506    -0.8616725294
 ----------------------------------------------------------------

   11    -286.7239569314      6.44E-09 Convergence criterion met
 Total energy in the final basis set = -286.72395693
 Final energy is   -286.723956931388
 **  OPTIMIZATION CONVERGED  **

                    Orbital Energies (a.u.)
 --------------------------------------------------------------

 Alpha MOs
 -- Occupied --
-14.350 -10.239 -10.238 -10.204 -10.196 -10.191 -10.178  -0.969
 -0.799  -0.744  -0.670  -0.596  -0.586  -0.535  -0.494  -0.479
 -0.432  -0.409  -0.381  -0.374  -0.318  -0.302  -0.238  -0.222
 -0.192

 Beta MOs
 -- Occupied --
-14.350 -10.239 -10.238 -10.205 -10.192 -10.181 -10.177  -0.969
 -0.795  -0.736  -0.661  -0.596  -0.577  -0.530  -0.487  -0.473
 -0.429  -0.398  -0.381  -0.371  -0.315  -0.300  -0.233  -0.187

          Ground-State Mulliken Net Atomic Charges

     Atom                 Charge (a.u.)    Spin (a.u.)
  --------------------------------------------------------
      1 C                     0.010104       0.003095
      2 C                    -0.225821       1.056990
      3 C                    -0.133315      -0.163806
      4 C                    -0.116804       0.069413
      5 C                     0.008726      -0.059203
      6 N                    -0.388574      -0.001599
      7 H                     0.179908       0.002082
      8 H                     0.153374       0.005599
      9 H                     0.139378       0.083368
     10 H                     0.122708      -0.002512
     11 H                     0.128697       0.004658
     12 C                    -0.052106       0.000120
     13 H                     0.173725       0.001794
  --------------------------------------------------------
  Sum of atomic charges =    -0.000000

                    Cartesian Multipole Moments
 -----------------------------------------------------------------
    Charge (ESU x 10^10)
                 0.0000
    Dipole Moment (Debye)
         X       0.0323      Y       0.6124      Z      -1.8692
       Tot       1.9672
    Quadrupole Moments (Debye-Ang)
        XX     -37.7377     XY       1.8587     YY     -32.7553
        XZ      -4.0343     YZ      -0.1827     ZZ     -43.2933

 Total job time:  58.12s(wall), 50.19s(cpu)
        *  Thank you very much for using Q-Chem.  Have a nice day.  *
