 Q-Chem 5.0, Q-Chem, Inc., Pleasanton, CA (2017)
 Q-Chem 5.0.2 for Intel X86 EM64T Linux

User input:
--------------------------------------------------------------
$molecule
0 2
C        1.3915629877    0.8456298448   -0.4532011840
C        0.3327596462   -1.4191299512   -0.0084647962
C       -0.9372459130   -1.0640392653    0.3358374337
C       -1.4732362344    0.2709984383    0.4082704565
C       -0.8282364513    1.4662632049    0.1483439022
N        0.4320413586    1.7760278673   -0.2340189819
H        2.3384515023    1.2997111233   -0.7534589563
H        0.5701190180   -2.4810445442   -0.0122387312
H       -1.6288423538   -1.8664394923    0.5848956409
H       -2.5162658085    0.3548122936    0.7038817878
H       -1.4480843328    2.3571561805    0.2722610443
C        1.4094190941   -0.5335789134   -0.3736495680
H        2.3575574872   -1.0063667865   -0.6184580478
****
C        1.7129564614    0.1668558846   -0.5035963917
C       -0.1456953885   -1.3328549554    0.1265314287
C       -1.4597846519   -1.1907208554    0.4946138501
C       -1.7523410790    0.2082354119    0.4916174965
C       -0.6072744821    0.8698111231    0.1216488075
N        0.3817814852   -0.0714452832   -0.1043298441
H        2.2839793979   -0.7549782642   -0.6079733316
H        0.4714861713   -2.2115338365    0.0045454748
H       -2.1392854434   -1.9953493493    0.7407638569
H       -2.6984662687    0.6729001337    0.7350640688
H       -0.4032597937    1.9227371105   -0.0030320463
C        2.2837670629    1.3291686770   -0.7435910204
H        2.0721365285    2.3871742033   -0.7522623491
$end

$rem
method                b3lyp
basis                 6-31g(d)
unrestricted          true
symmetry              off
sym_ignore            true
incdft                false
incfock               0
scf_convergence       8
thresh                14
jobtype               fsm
scf_guess             core
scf_guess_mix         5
scf_algorithm         diis
max_scf_cycles        100
fsm_nnode             21
fsm_ngrad             6
fsm_mode              2
fsm_opt_mode          2
$end

--------------------------------------------------------------

   23    -286.9243111304      4.52E-09 Convergence criterion met
 Total energy in the final basis set = -286.92431113
   21    -286.8707873095      7.13E-09 Convergence criterion met
 Total energy in the final basis set = -286.87078731
   22    -286.9095883021      7.83E-09 Convergence criterion met
 Total energy in the final basis set = -286.90958830
   23    -286.9147057594      8.46E-09 Convergence criterion met
 Total energy in the final basis set = -286.91470576
   21    -286.8480827339      8.85E-09 Convergence criterion met
 Total energy in the final basis set = -286.84808273
   22    -286.8589864778      6.16E-09 Convergence criterion met
 Total energy in the final basis set = -286.85898648
   24    -286.8834809050      4.93E-09 Convergence criterion met
 Total energy in the final basis set = -286.88348090
   23    -286.8893213301      5.01E-09 Convergence criterion met
 Total energy in the final basis set = -286.67319645
   45    -286.6817398064      5.70E-09 Convergence criterion met
 Total energy in the final basis set = -286.68173981
   26    -286.7295270630      3.71E-09 Convergence criterion met
 Total energy in the final basis set = -286.72952706
   28    -286.7226492739      6.13E-09 Convergence criterion met
 Total energy in the final basis set = -286.72264927
   26    -286.7295293387      3.71E-09 Convergence criterion met
 Total energy in the final basis set = -286.72952934
   28    -286.7226536527      6.11E-09 Convergence criterion met
 Total energy in the final basis set = -286.72265365
   26    -286.7295332483      3.71E-09 Convergence criterion met
 Total energy in the final basis set = -286.72953325
   28    -286.7226609213      6.10E-09 Convergence criterion met
 Total energy in the final basis set = -286.72266092

                    Orbital Energies (a.u.)
 --------------------------------------------------------------

 Alpha MOs
 -- Occupied --
-14.370 -10.227 -10.226 -10.220 -10.218 -10.200 -10.184  -0.937
 -0.806  -0.722  -0.681  -0.609  -0.551  -0.532  -0.502  -0.465
 -0.431  -0.403  -0.390  -0.367  -0.336  -0.279  -0.262  -0.233
 -0.189

 Beta MOs
 -- Occupied --
-14.367 -10.230 -10.226 -10.222 -10.202 -10.198 -10.185  -0.934
 -0.805  -0.718  -0.669  -0.596  -0.549  -0.530  -0.499  -0.456
 -0.425  -0.403  -0.390  -0.369  -0.333  -0.265  -0.230  -0.191

          Ground-State Mulliken Net Atomic Charges

     Atom                 Charge (a.u.)    Spin (a.u.)
  --------------------------------------------------------
      1 C                    -0.019318      -0.322836
      2 C                    -0.085224      -0.211792
      3 C                    -0.116982       0.140115
      4 C                    -0.141159      -0.045954
      5 C                     0.047250       0.094081
      6 N                    -0.403604       0.101278
      7 H                     0.160759       0.041051
      8 H                     0.154103       0.001043
      9 H                     0.146707      -0.013486
     10 H                     0.142193       0.002085
     11 H                     0.151346      -0.004815
     12 C                    -0.182994       1.188040
     13 H                     0.146922       0.031190
  --------------------------------------------------------
  Sum of atomic charges =    -0.000000

                    Cartesian Multipole Moments
 -----------------------------------------------------------------
    Charge (ESU x 10^10)
                -0.0000
    Dipole Moment (Debye)
         X       0.0571      Y      -0.1948      Z       0.1014
       Tot       0.2269
    Quadrupole Moments (Debye-Ang)
        XX     -35.2976     XY      -0.2263     YY     -37.7431
        XZ      -0.9635     YZ      -0.9105     ZZ     -43.9533

             Standard Nuclear Orientation (Angstroms)
    I     Atom           X                Y                Z
 ----------------------------------------------------------------
    1      C       1.6403757167     0.4144566536    -0.0558944265
    2      C      -0.0235008501    -1.2469407775     0.1284806793
    3      C      -1.3421710328    -1.0952186671     0.3438123205
    4      C      -1.7872335261     0.2596298550     0.2631867039
    5      C      -0.6942204125     1.0734142392     0.2679288408
    6      N       0.5535602208     0.6195709439     0.6856862924
    7      H       2.5704664776     0.2544036840     0.5162234270
    8      H       0.6381583548    -2.0228383989     0.4695985770
    9      H      -1.9698004755    -1.9260389159     0.6701427067
   10      H      -2.8300766115     0.5933648555     0.2794053011
   11      H      -0.6977039358     2.1479641100     0.1048747768
   12      C       1.5642211334     0.1712461031    -1.4102823226
   13      H       2.3501660021     0.3641034341    -2.1676406042
 ----------------------------------------------------------------

 Total job time:  3161.74s(wall), 9983.84s(cpu)
        *  Thank you very much for using Q-Chem.  Have a nice day.  *
