 Q-Chem 5.0, Q-Chem, Inc., Pleasanton, CA (2017)
 Q-Chem 5.0.2 for Intel X86 EM64T Linux

User input:
--------------------------------------------------------------
$molecule
0 2
C        1.7130215860    0.1670611838   -0.5032386452
C       -0.1457353605   -1.3324510280    0.1271661948
C       -1.4595308609   -1.1904498549    0.4959694350
C       -1.7522403587    0.2082901400    0.4923175028
C       -0.6074129166    0.8703438361    0.1221443696
N        0.3817456371   -0.0708565300   -0.1040121945
H        2.2842050677   -0.7551109763   -0.6090495923
H        0.4712364460   -2.2113997254    0.0046424563
H       -2.1402562938   -1.9955745949    0.7389927412
H       -2.6992450123    0.6710115068    0.7357928020
H       -0.4039078567    1.9228802981   -0.0047322992
C        2.2844853671    1.3288984671   -0.7431412085
H        2.0736345555    2.3873572776   -0.7528515620
$end

$rem
method                b3lyp
basis                 6-31g(d)
unrestricted          true
symmetry              off
sym_ignore            true
incdft                false
incfock               0
scf_convergence       8
thresh                14
jobtype               opt
scf_guess             core
scf_guess_mix         5
scf_algorithm         diis
max_scf_cycles        100
geom_opt_max_cycles   300
$end

--------------------------------------------------------------

   21    -286.8707854440      7.32E-09 Convergence criterion met
 Total energy in the final basis set = -286.87078544
   16    -286.8707869878      3.55E-09 Convergence criterion met
 Total energy in the final basis set = -286.87078699

             Standard Nuclear Orientation (Angstroms)
    I     Atom           X                Y                Z
 ----------------------------------------------------------------
    1      C       1.7129564614     0.1668558846    -0.5035963917
    2      C      -0.1456953885    -1.3328549554     0.1265314287
    3      C      -1.4597846519    -1.1907208554     0.4946138501
    4      C      -1.7523410790     0.2082354119     0.4916174965
    5      C      -0.6072744821     0.8698111231     0.1216488075
    6      N       0.3817814852    -0.0714452832    -0.1043298441
    7      H       2.2839793979    -0.7549782642    -0.6079733316
    8      H       0.4714861713    -2.2115338365     0.0045454748
    9      H      -2.1392854434    -1.9953493493     0.7407638569
   10      H      -2.6984662687     0.6729001337     0.7350640688
   11      H      -0.4032597937     1.9227371105    -0.0030320463
   12      C       2.2837670629     1.3291686770    -0.7435910204
   13      H       2.0721365285     2.3871742033    -0.7522623491
 ----------------------------------------------------------------

   16    -286.8707872231      3.47E-09 Convergence criterion met
 Total energy in the final basis set = -286.87078722
 Final energy is   -286.870787223119
 **  OPTIMIZATION CONVERGED  **

                    Orbital Energies (a.u.)
 --------------------------------------------------------------

 Alpha MOs
 -- Occupied --
-14.394 -10.241 -10.214 -10.206 -10.204 -10.173 -10.172  -0.989
 -0.817  -0.737  -0.722  -0.618  -0.574  -0.547  -0.533  -0.459
 -0.436  -0.425  -0.415  -0.386  -0.376  -0.304  -0.255  -0.226
 -0.213

 Beta MOs
 -- Occupied --
-14.393 -10.243 -10.206 -10.204 -10.199 -10.173 -10.172  -0.987
 -0.812  -0.726  -0.718  -0.605  -0.571  -0.545  -0.524  -0.452
 -0.432  -0.425  -0.413  -0.385  -0.375  -0.301  -0.217  -0.213

          Ground-State Mulliken Net Atomic Charges

     Atom                 Charge (a.u.)    Spin (a.u.)
  --------------------------------------------------------
      1 C                     0.045978      -0.142990
      2 C                     0.029357       0.001779
      3 C                    -0.192831      -0.004870
      4 C                    -0.186083      -0.008475
      5 C                     0.035681       0.000793
      6 N                    -0.403086       0.042122
      7 H                     0.163424       0.034808
      8 H                     0.146989       0.000211
      9 H                     0.129529       0.001773
     10 H                     0.129527       0.001029
     11 H                     0.145424       0.001084
     12 C                    -0.213781       1.079659
     13 H                     0.169872      -0.006924
  --------------------------------------------------------
  Sum of atomic charges =    -0.000000

                    Cartesian Multipole Moments
 -----------------------------------------------------------------
    Charge (ESU x 10^10)
                 0.0000
    Dipole Moment (Debye)
         X       0.4156      Y       0.1130      Z      -0.1264
       Tot       0.4488
    Quadrupole Moments (Debye-Ang)
        XX     -40.1359     XY      -1.2171     YY     -34.6726
        XZ      -1.2854     YZ      -0.3006     ZZ     -44.4787

 Total job time:  48.04s(wall), 149.72s(cpu)
        *  Thank you very much for using Q-Chem.  Have a nice day.  *
