 Q-Chem 5.0, Q-Chem, Inc., Pleasanton, CA (2017)
 Q-Chem 5.0.2 for Intel X86 EM64T Linux

User input:
--------------------------------------------------------------
$molecule
0 2
C        1.3917926526    0.8452961317   -0.4535025930
C        0.3320571785   -1.4191549484   -0.0108989053
C       -0.9372591919   -1.0635990874    0.3355769777
C       -1.4735453263    0.2709161228    0.4088277573
C       -0.8285738633    1.4661756562    0.1474827301
N        0.4314529297    1.7764552369   -0.2354434273
H        2.3396145720    1.2992120474   -0.7509214815
H        0.5705480365   -2.4807056323   -0.0106180559
H       -1.6290252401   -1.8659895641    0.5846124860
H       -2.5160373095    0.3540411315    0.7062609095
H       -1.4481548325    2.3572705780    0.2719537962
C        1.4089889628   -0.5338951732   -0.3753636075
H        2.3581414318   -1.0060224992   -0.6179665861
$end

$rem
method                b3lyp
basis                 6-31g(d)
unrestricted          true
symmetry              off
sym_ignore            true
incdft                false
incfock               0
scf_convergence       8
thresh                14
jobtype               opt
scf_guess             core
scf_guess_mix         5
scf_algorithm         diis
max_scf_cycles        100
geom_opt_max_cycles   300
$end

--------------------------------------------------------------

   23    -286.9243082816      3.55E-09 Convergence criterion met
 Total energy in the final basis set = -286.92430828
   18    -286.9243107546      3.14E-09 Convergence criterion met
 Total energy in the final basis set = -286.92431075

             Standard Nuclear Orientation (Angstroms)
    I     Atom           X                Y                Z
 ----------------------------------------------------------------
    1      C       1.3915629877     0.8456298448    -0.4532011840
    2      C       0.3327596462    -1.4191299512    -0.0084647962
    3      C      -0.9372459130    -1.0640392653     0.3358374337
    4      C      -1.4732362344     0.2709984383     0.4082704565
    5      C      -0.8282364513     1.4662632049     0.1483439022
    6      N       0.4320413586     1.7760278673    -0.2340189819
    7      H       2.3384515023     1.2997111233    -0.7534589563
    8      H       0.5701190180    -2.4810445442    -0.0122387312
    9      H      -1.6288423538    -1.8664394923     0.5848956409
   10      H      -2.5162658085     0.3548122936     0.7038817878
   11      H      -1.4480843328     2.3571561805     0.2722610443
   12      C       1.4094190941    -0.5335789134    -0.3736495680
   13      H       2.3575574872    -1.0063667865    -0.6184580478
 ----------------------------------------------------------------

   18    -286.9243111304      2.94E-09 Convergence criterion met
 Total energy in the final basis set = -286.92431113
 Final energy is   -286.924311130445
 **  OPTIMIZATION CONVERGED  **

                    Orbital Energies (a.u.)
 --------------------------------------------------------------

 Alpha MOs
 -- Occupied --
-14.322 -10.232 -10.232 -10.212 -10.211 -10.201 -10.200  -0.922
 -0.818  -0.784  -0.693  -0.667  -0.551  -0.537  -0.518  -0.449
 -0.439  -0.414  -0.394  -0.386  -0.349  -0.322  -0.299  -0.251
 -0.162

 Beta MOs
 -- Occupied --
-14.314 -10.234 -10.233 -10.210 -10.210 -10.196 -10.196  -0.911
 -0.809  -0.777  -0.681  -0.665  -0.546  -0.535  -0.514  -0.447
 -0.438  -0.411  -0.383  -0.373  -0.348  -0.295  -0.276  -0.242

          Ground-State Mulliken Net Atomic Charges

     Atom                 Charge (a.u.)    Spin (a.u.)
  --------------------------------------------------------
      1 C                     0.035324      -0.110562
      2 C                    -0.111622       0.098062
      3 C                    -0.110822       0.089400
      4 C                    -0.131931       0.350372
      5 C                     0.035826      -0.114637
      6 N                    -0.423390       0.386986
      7 H                     0.142585       0.003301
      8 H                     0.141919      -0.006843
      9 H                     0.141956      -0.006429
     10 H                     0.134314      -0.018492
     11 H                     0.142619       0.003502
     12 C                    -0.131192       0.343511
     13 H                     0.134415      -0.018172
  --------------------------------------------------------
  Sum of atomic charges =     0.000000

                    Cartesian Multipole Moments
 -----------------------------------------------------------------
    Charge (ESU x 10^10)
                -0.0000
    Dipole Moment (Debye)
         X      -0.5274      Y      -2.1627      Z       0.2850
       Tot       2.2442
    Quadrupole Moments (Debye-Ang)
        XX     -35.4237     XY      -1.9774     YY     -41.8128
        XZ      -2.1672     YZ       0.4768     ZZ     -42.7651

 Total job time:  53.09s(wall), 166.95s(cpu)
        *  Thank you very much for using Q-Chem.  Have a nice day.  *
