 Q-Chem 5.0, Q-Chem, Inc., Pleasanton, CA (2017)
 Q-Chem 5.0.2 for Intel X86 EM64T Linux

User input:
--------------------------------------------------------------
$molecule
0 2
C        1.9394910574    0.8996732171   -0.3810573407
C       -1.3595542270   -2.5679001621    0.6502124810
C       -1.4578858236   -1.3091062295    1.0138803516
C       -1.4634304089   -0.1518426926    0.0798301665
C       -0.3543302260    0.5275255446   -0.3329725164
N        0.8923996886    0.1912787148    0.0909921763
H        2.9110659922    0.5815779396    0.0203403107
H       -1.3467403036   -3.5304766142    1.1468095275
H       -1.5759127434   -1.0672327662    2.0804889363
H       -2.4326951989    0.1919576656   -0.2799444214
H       -0.4860124421    1.3716719870   -1.0198392490
C        1.9614523853    1.9292395937   -1.2711397112
H        2.7443933111    2.5407509211   -1.7020784389
$end

$rem
method                b3lyp
basis                 6-31g(d)
unrestricted          true
symmetry              off
sym_ignore            true
incdft                false
incfock               0
scf_convergence       8
thresh                14
jobtype               sp
scf_guess             read
scf_algorithm         diis
max_scf_cycles        100
$end

--------------------------------------------------------------

             Standard Nuclear Orientation (Angstroms)
    I     Atom           X                Y                Z
 ----------------------------------------------------------------
    1      C       1.9394910574     0.8996732171    -0.3810573407
    2      C      -1.3595542270    -2.5679001621     0.6502124810
    3      C      -1.4578858236    -1.3091062295     1.0138803516
    4      C      -1.4634304089    -0.1518426926     0.0798301665
    5      C      -0.3543302260     0.5275255446    -0.3329725164
    6      N       0.8923996886     0.1912787148     0.0909921763
    7      H       2.9110659922     0.5815779396     0.0203403107
    8      H      -1.3467403036    -3.5304766142     1.1468095275
    9      H      -1.5759127434    -1.0672327662     2.0804889363
   10      H      -2.4326951989     0.1919576656    -0.2799444214
   11      H      -0.4860124421     1.3716719870    -1.0198392490
   12      C       1.9614523853     1.9292395937    -1.2711397112
   13      H       2.7443933111     2.5407509211    -1.7020784389
 ----------------------------------------------------------------

    2    -286.7238204633      2.13E-09 Convergence criterion met
 Total energy in the final basis set = -286.72382046

                    Orbital Energies (a.u.)
 --------------------------------------------------------------

 Alpha MOs
 -- Occupied --
-14.339 -10.229 -10.228 -10.218 -10.209 -10.200 -10.191  -0.931
 -0.801  -0.751  -0.706  -0.614  -0.559  -0.507  -0.497  -0.474
 -0.455  -0.418  -0.392  -0.386  -0.286  -0.274  -0.259  -0.254
 -0.214

 Beta MOs
 -- Occupied --
-14.329 -10.233 -10.220 -10.207 -10.206 -10.204 -10.199  -0.915
 -0.797  -0.744  -0.688  -0.608  -0.559  -0.505  -0.485  -0.468
 -0.463  -0.408  -0.396  -0.359  -0.270  -0.258  -0.254  -0.231

          Ground-State Mulliken Net Atomic Charges

     Atom                 Charge (a.u.)    Spin (a.u.)
  --------------------------------------------------------
      1 C                     0.017137      -0.295078
      2 C                    -0.167475      -1.051085
      3 C                    -0.143549       0.139139
      4 C                    -0.157551       0.413379
      5 C                     0.078250      -0.171903
      6 N                    -0.380888       0.478311
      7 H                     0.156665       0.075159
      8 H                     0.161400      -0.001230
      9 H                     0.161604      -0.064616
     10 H                     0.153749      -0.018053
     11 H                     0.129319       0.001057
     12 C                    -0.177392       1.519017
     13 H                     0.168731      -0.024097
  --------------------------------------------------------
  Sum of atomic charges =    -0.000000

                    Cartesian Multipole Moments
 -----------------------------------------------------------------
    Charge (ESU x 10^10)
                 0.0000
    Dipole Moment (Debye)
         X       0.0024      Y       1.0086      Z      -0.0910
       Tot       1.0127
    Quadrupole Moments (Debye-Ang)
        XX     -35.1395     XY       2.9229     YY     -37.9407
        XZ      -2.8099     YZ      -3.7694     ZZ     -39.7793

 Total job time:  2.23s(wall), 5.81s(cpu)
        *  Thank you very much for using Q-Chem.  Have a nice day.  *
