 Q-Chem 5.0, Q-Chem, Inc., Pleasanton, CA (2017)
 Q-Chem 5.0.2 for Intel X86 EM64T Linux

User input:
--------------------------------------------------------------
$molecule
0 2
C        1.9394910574    0.8996732171   -0.3810573407
C       -1.3595542270   -2.5679001621    0.6502124810
C       -1.4578858236   -1.3091062295    1.0138803516
C       -1.4634304089   -0.1518426926    0.0798301665
C       -0.3543302260    0.5275255446   -0.3329725164
N        0.8923996886    0.1912787148    0.0909921763
H        2.9110659922    0.5815779396    0.0203403107
H       -1.3467403036   -3.5304766142    1.1468095275
H       -1.5759127434   -1.0672327662    2.0804889363
H       -2.4326951989    0.1919576656   -0.2799444214
H       -0.4860124421    1.3716719870   -1.0198392490
C        1.9614523853    1.9292395937   -1.2711397112
H        2.7443933111    2.5407509211   -1.7020784389
$end

$rem
method                b3lyp
basis                 6-31+g(d,p)
unrestricted          true
symmetry              off
sym_ignore            true
incdft                false
incfock               0
scf_convergence       8
thresh                14
jobtype               freq
scf_guess             read
scf_algorithm         diis
max_scf_cycles        100
$end

--------------------------------------------------------------

             Standard Nuclear Orientation (Angstroms)
    I     Atom           X                Y                Z
 ----------------------------------------------------------------
    1      C       1.9394910574     0.8996732171    -0.3810573407
    2      C      -1.3595542270    -2.5679001621     0.6502124810
    3      C      -1.4578858236    -1.3091062295     1.0138803516
    4      C      -1.4634304089    -0.1518426926     0.0798301665
    5      C      -0.3543302260     0.5275255446    -0.3329725164
    6      N       0.8923996886     0.1912787148     0.0909921763
    7      H       2.9110659922     0.5815779396     0.0203403107
    8      H      -1.3467403036    -3.5304766142     1.1468095275
    9      H      -1.5759127434    -1.0672327662     2.0804889363
   10      H      -2.4326951989     0.1919576656    -0.2799444214
   11      H      -0.4860124421     1.3716719870    -1.0198392490
   12      C       1.9614523853     1.9292395937    -1.2711397112
   13      H       2.7443933111     2.5407509211    -1.7020784389
 ----------------------------------------------------------------

   18    -286.7262343081      6.37E-09 Convergence criterion met
 Total energy in the final basis set = -286.72623431

                    Orbital Energies (a.u.)
 --------------------------------------------------------------

 Alpha MOs
 -- Occupied --
-14.360 -10.248 -10.232 -10.229 -10.226 -10.222 -10.214  -0.941
 -0.817  -0.764  -0.717  -0.628  -0.577  -0.519  -0.503  -0.485
 -0.478  -0.427  -0.412  -0.388  -0.291  -0.286  -0.277  -0.246
 -0.222

 Beta MOs
 -- Occupied --
-14.360 -10.248 -10.232 -10.229 -10.225 -10.216 -10.207  -0.941
 -0.812  -0.757  -0.711  -0.621  -0.567  -0.513  -0.503  -0.480
 -0.466  -0.427  -0.404  -0.388  -0.288  -0.283  -0.271  -0.221

          Ground-State Mulliken Net Atomic Charges

     Atom                 Charge (a.u.)    Spin (a.u.)
  --------------------------------------------------------
      1 C                    -0.031245      -0.007876
      2 C                    -0.306685       1.116010
      3 C                    -0.104794      -0.232036
      4 C                     0.120995       0.025875
      5 C                    -0.331250      -0.004518
      6 N                    -0.101387       0.002616
      7 H                     0.140446      -0.000234
      8 H                     0.151683       0.009065
      9 H                     0.156512       0.081526
     10 H                     0.148578      -0.002871
     11 H                     0.132495       0.001760
     12 C                    -0.131906       0.010419
     13 H                     0.156558       0.000262
  --------------------------------------------------------
  Sum of atomic charges =     0.000000

                    Cartesian Multipole Moments
 -----------------------------------------------------------------
    Charge (ESU x 10^10)
                 0.0000
    Dipole Moment (Debye)
         X       0.0245      Y       0.7276      Z       0.2400
       Tot       0.7666
    Quadrupole Moments (Debye-Ang)
        XX     -36.2073     XY       2.8843     YY     -40.5020
        XZ      -2.9165     YZ      -3.2080     ZZ     -41.9965

 Frequency:      -192.69                 -95.82                 133.64
 Force Cnst:      0.0484                 0.0242                 0.0361
 Red. Mass:       2.2145                 4.4646                 3.4330
 IR Intens:       10.220                  0.229                  3.005
 Frequency:       224.20                 253.97                 352.22
 Force Cnst:      0.1242                 0.1143                 0.1751
 Red. Mass:       4.1947                 3.0067                 2.3955
 IR Intens:        2.691                  5.770                 40.795
 Frequency:       442.61                 490.53                 536.05
 Force Cnst:      0.1476                 0.3442                 0.3812
 Red. Mass:       1.2789                 2.4277                 2.2514
 IR Intens:      462.885                 15.763                 20.598
 Frequency:       609.91                 629.81                 767.39
 Force Cnst:      0.2649                 0.6683                 0.7025
 Red. Mass:       1.2086                 2.8594                 2.0247
 IR Intens:       19.351                 54.264                 45.609
 Frequency:       780.04                 798.95                 861.80
 Force Cnst:      0.4962                 0.6301                 0.9775
 Red. Mass:       1.3842                 1.6754                 2.2338
 IR Intens:       10.465                 12.494                 16.828
 Frequency:       940.34                 984.06                1003.67
 Force Cnst:      0.7309                 1.1925                 0.9489
 Red. Mass:       1.4029                 2.0902                 1.5988
 IR Intens:        6.147                 13.324                  1.076
 Frequency:      1092.53                1179.73                1235.02
 Force Cnst:      2.3303                 1.3861                 1.1075
 Red. Mass:       3.3135                 1.6904                 1.2323
 IR Intens:       10.753                 95.908                 22.243
 Frequency:      1246.59                1306.05                1394.23
 Force Cnst:      1.1412                 3.7724                 2.0452
 Red. Mass:       1.2464                 3.7536                 1.7857
 IR Intens:       14.857                 70.236                 36.036
 Frequency:      1455.89                1603.24                1682.56
 Force Cnst:      2.8132                 8.8262                13.0122
 Red. Mass:       2.2526                 5.8281                 7.8012
 IR Intens:       25.938                 32.341                  0.482
 Frequency:      3018.12                3038.18                3067.85
 Force Cnst:      5.8003                 5.8721                 6.0189
 Red. Mass:       1.0808                 1.0797                 1.0854
 IR Intens:        9.692                 15.933                 21.254
 Frequency:      3164.18                3244.00                3248.66
 Force Cnst:      6.4260                 6.7965                 6.8624
 Red. Mass:       1.0894                 1.0962                 1.1036
 IR Intens:       11.172                  3.630                  1.506

 STANDARD THERMODYNAMIC QUANTITIES AT   298.15 K  AND     1.00 ATM

   This Molecule has  2 Imaginary Frequencies
   Zero point vibrational energy:       58.307 kcal/mol

   Atom    1 Element C  Has Mass   12.00000
   Atom    2 Element C  Has Mass   12.00000
   Atom    3 Element C  Has Mass   12.00000
   Atom    4 Element C  Has Mass   12.00000
   Atom    5 Element C  Has Mass   12.00000
   Atom    6 Element N  Has Mass   14.00307
   Atom    7 Element H  Has Mass    1.00783
   Atom    8 Element H  Has Mass    1.00783
   Atom    9 Element H  Has Mass    1.00783
   Atom   10 Element H  Has Mass    1.00783
   Atom   11 Element H  Has Mass    1.00783
   Atom   12 Element C  Has Mass   12.00000
   Atom   13 Element H  Has Mass    1.00783
   Molecular Mass:    92.050050 amu
   Principal axes and moments of inertia in amu*Bohr^2:
                             1           2           3
    Eigenvalues --      198.03457  1383.60260  1518.36659
          X               0.68836     0.72491     0.02572
          Y               0.65044    -0.63256     0.42046
          Z              -0.32107     0.27270     0.90695
   Rotational Symmetry Number is   1
   The Molecule is an Asymmetric Top
   Translational Enthalpy:        0.889 kcal/mol
   Rotational Enthalpy:           0.889 kcal/mol
   Vibrational Enthalpy:         60.548 kcal/mol
   gas constant (RT):             0.592 kcal/mol
   Translational Entropy:        39.471  cal/mol.K
   Rotational Entropy:           27.522  cal/mol.K
   Vibrational Entropy:          11.978  cal/mol.K

   Total Enthalpy:               62.918 kcal/mol
   Total Entropy:                78.971  cal/mol.K

 Total job time:  537.56s(wall), 523.73s(cpu)
        *  Thank you very much for using Q-Chem.  Have a nice day.  *
