 Q-Chem 5.0, Q-Chem, Inc., Pleasanton, CA (2017)
 Q-Chem 5.0.2 for Intel X86 EM64T Linux

User input:
--------------------------------------------------------------
$molecule
0 2
C        1.6403757167    0.4144566536   -0.0558944265
C       -0.0235008501   -1.2469407775    0.1284806793
C       -1.3421710328   -1.0952186671    0.3438123205
C       -1.7872335261    0.2596298550    0.2631867039
C       -0.6942204125    1.0734142392    0.2679288408
N        0.5535602208    0.6195709439    0.6856862924
H        2.5704664776    0.2544036840    0.5162234270
H        0.6381583548   -2.0228383989    0.4695985770
H       -1.9698004755   -1.9260389159    0.6701427067
H       -2.8300766115    0.5933648555    0.2794053011
H       -0.6977039358    2.1479641100    0.1048747768
C        1.5642211334    0.1712461031   -1.4102823226
H        2.3501660021    0.3641034341   -2.1676406042
$end

$rem
method                b3lyp
basis                 6-31g(d)
unrestricted          true
symmetry              off
sym_ignore            true
incdft                false
incfock               0
scf_convergence       6
thresh                14
jobtype               sp
scf_guess             read
scf_algorithm         diis
max_scf_cycles        100
stability_analysis    true
max_cis_cycles        100
cis_n_roots           4
$end

--------------------------------------------------------------

             Standard Nuclear Orientation (Angstroms)
    I     Atom           X                Y                Z
 ----------------------------------------------------------------
    1      C       1.6403757167     0.4144566536    -0.0558944265
    2      C      -0.0235008501    -1.2469407775     0.1284806793
    3      C      -1.3421710328    -1.0952186671     0.3438123205
    4      C      -1.7872335261     0.2596298550     0.2631867039
    5      C      -0.6942204125     1.0734142392     0.2679288408
    6      N       0.5535602208     0.6195709439     0.6856862924
    7      H       2.5704664776     0.2544036840     0.5162234270
    8      H       0.6381583548    -2.0228383989     0.4695985770
    9      H      -1.9698004755    -1.9260389159     0.6701427067
   10      H      -2.8300766115     0.5933648555     0.2794053011
   11      H      -0.6977039358     2.1479641100     0.1048747768
   12      C       1.5642211334     0.1712461031    -1.4102823226
   13      H       2.3501660021     0.3641034341    -2.1676406042
 ----------------------------------------------------------------

    2    -286.6954455752      1.29E-10 Convergence criterion met
 Total energy in the final basis set = -286.69544558

         TDDFT/TDA Excitation Energies
 ---------------------------------------------------

 Excited state   1: excitation energy (eV) =    1.1019
 Total energy for state  1:                  -286.65494977 au
    <S**2>     :  1.2162
    Trans. Mom.:  0.1407 X   0.1006 Y  -0.2163 Z
    Strength   :     0.0020707005
    S(  1) --> V(  1) amplitude =  0.1992 alpha
    D( 24) --> S(  1) amplitude =  0.9591 beta

 Excited state   2: excitation energy (eV) =    1.8055
 Total energy for state  2:                  -286.62909294 au
    <S**2>     :  1.7417
    Trans. Mom.: -0.0951 X  -0.1145 Y   0.0401 Z
    Strength   :     0.0010507527
    S(  1) --> V(  1) amplitude = -0.6113 alpha
    D( 23) --> S(  1) amplitude = -0.3798 beta
    D( 24) --> V(  1) amplitude =  0.6747 beta

 Excited state   3: excitation energy (eV) =    2.2272
 Total energy for state  3:                  -286.61359735 au
    <S**2>     :  1.7830
    Trans. Mom.: -0.3668 X  -0.0072 Y   0.2636 Z
    Strength   :     0.0111355096
    D( 24) --> V(  1) amplitude = -0.2219 alpha
    D( 23) --> S(  1) amplitude =  0.8025 beta
    D( 23) --> V(  1) amplitude = -0.1926 beta
    D( 24) --> V(  1) amplitude =  0.4682 beta

 Excited state   4: excitation energy (eV) =    2.5977
 Total energy for state  4:                  -286.59998049 au
    <S**2>     :  0.9845
    Trans. Mom.:  0.0539 X  -0.3441 Y   0.0145 Z
    Strength   :     0.0077333676
    S(  1) --> V(  1) amplitude =  0.7026 alpha
    D( 23) --> S(  1) amplitude = -0.3669 beta
    D( 23) --> V(  2) amplitude =  0.1792 beta
    D( 24) --> S(  1) amplitude = -0.2057 beta
    D( 24) --> V(  1) amplitude =  0.4537 beta

 ---------------------------------------------------

                    Orbital Energies (a.u.)
 --------------------------------------------------------------

 Alpha MOs
 -- Occupied --
-14.365 -10.229 -10.222 -10.215 -10.206 -10.196 -10.189  -0.947
 -0.817  -0.740  -0.689  -0.620  -0.560  -0.528  -0.497  -0.470
 -0.451  -0.415  -0.394  -0.354  -0.340  -0.293  -0.249  -0.221
 -0.192

 Beta MOs
 -- Occupied --
-14.359 -10.228 -10.226 -10.224 -10.203 -10.190 -10.177  -0.939
 -0.816  -0.737  -0.677  -0.610  -0.560  -0.527  -0.493  -0.461
 -0.440  -0.415  -0.394  -0.355  -0.334  -0.279  -0.223  -0.189

          Ground-State Mulliken Net Atomic Charges

     Atom                 Charge (a.u.)    Spin (a.u.)
  --------------------------------------------------------
      1 C                     0.002442      -0.306377
      2 C                    -0.128838      -0.549528
      3 C                    -0.109077       0.216174
      4 C                    -0.130548      -0.052229
      5 C                     0.047625       0.108970
      6 N                    -0.386010       0.279549
      7 H                     0.150764       0.057286
      8 H                     0.162044      -0.002085
      9 H                     0.160649      -0.034262
     10 H                     0.142760       0.001475
     11 H                     0.150689       0.002275
     12 C                    -0.207520       1.271989
     13 H                     0.145023       0.006764
  --------------------------------------------------------
  Sum of atomic charges =     0.000000

                    Cartesian Multipole Moments
 -----------------------------------------------------------------
    Charge (ESU x 10^10)
                 0.0000
    Dipole Moment (Debye)
         X      -0.4411      Y      -0.3954      Z       0.3737
       Tot       0.7004
    Quadrupole Moments (Debye-Ang)
        XX     -35.4549     XY       0.0084     YY     -37.4414
        XZ      -0.9416     YZ      -2.1229     ZZ     -44.2554

 Total job time:  86.88s(wall), 83.09s(cpu)
        *  Thank you very much for using Q-Chem.  Have a nice day.  *
