 Q-Chem 5.0, Q-Chem, Inc., Pleasanton, CA (2017)
 Q-Chem 5.0.2 for Intel X86 EM64T Linux

User input:
--------------------------------------------------------------
$molecule
0 2
C        1.9177378580    0.8965913081   -0.3859780095
C       -1.3400193400   -2.5606155081    0.6540690563
C       -1.4392507762   -1.3015991260    1.0181271924
C       -1.4622329765   -0.1466720160    0.0815561733
C       -0.3793473497    0.5442700408   -0.3487866101
N        0.8890879885    0.2162172196    0.0711519273
H        2.8861104368    0.5680725678    0.0127857056
H       -1.3151674258   -3.5302267284    1.1334037572
H       -1.5507675317   -1.0591519888    2.0851404865
H       -2.4406036122    0.1807097904   -0.2685510797
H       -0.5055885116    1.3839095492   -1.0367804810
C        1.8865474151    1.9703258187   -1.3114966776
H        2.8257348864    2.4452861914   -1.6091191684
$end

$rem
method                b3lyp
basis                 6-31+g(d,p)
unrestricted          true
symmetry              off
sym_ignore            true
incdft                false
incfock               0
scf_convergence       8
thresh                14
jobtype               freq
scf_guess             read
scf_algorithm         diis
max_scf_cycles        100
$end

--------------------------------------------------------------

             Standard Nuclear Orientation (Angstroms)
    I     Atom           X                Y                Z
 ----------------------------------------------------------------
    1      C       1.9177378580     0.8965913081    -0.3859780095
    2      C      -1.3400193400    -2.5606155081     0.6540690563
    3      C      -1.4392507762    -1.3015991260     1.0181271924
    4      C      -1.4622329765    -0.1466720160     0.0815561733
    5      C      -0.3793473497     0.5442700408    -0.3487866101
    6      N       0.8890879885     0.2162172196     0.0711519273
    7      H       2.8861104368     0.5680725678     0.0127857056
    8      H      -1.3151674258    -3.5302267284     1.1334037572
    9      H      -1.5507675317    -1.0591519888     2.0851404865
   10      H      -2.4406036122     0.1807097904    -0.2685510797
   11      H      -0.5055885116     1.3839095492    -1.0367804810
   12      C       1.8865474151     1.9703258187    -1.3114966776
   13      H       2.8257348864     2.4452861914    -1.6091191684
 ----------------------------------------------------------------

   26    -286.7302261525      6.38E-09 Convergence criterion met
 Total energy in the final basis set = -286.73022615

                    Orbital Energies (a.u.)
 --------------------------------------------------------------

 Alpha MOs
 -- Occupied --
-14.366 -10.246 -10.234 -10.230 -10.227 -10.225 -10.217  -0.949
 -0.821  -0.762  -0.712  -0.633  -0.580  -0.519  -0.504  -0.482
 -0.465  -0.431  -0.413  -0.393  -0.293  -0.286  -0.277  -0.248
 -0.233

 Beta MOs
 -- Occupied --
-14.366 -10.247 -10.234 -10.229 -10.227 -10.219 -10.209  -0.949
 -0.817  -0.753  -0.708  -0.626  -0.569  -0.513  -0.501  -0.470
 -0.463  -0.430  -0.406  -0.393  -0.289  -0.284  -0.273  -0.233

          Ground-State Mulliken Net Atomic Charges

     Atom                 Charge (a.u.)    Spin (a.u.)
  --------------------------------------------------------
      1 C                     0.017993      -0.006641
      2 C                    -0.303272       1.118168
      3 C                    -0.110213      -0.238356
      4 C                     0.154710       0.037514
      5 C                    -0.354951      -0.008966
      6 N                    -0.076667       0.003100
      7 H                     0.136305       0.000707
      8 H                     0.153636       0.007287
      9 H                     0.157725       0.081632
     10 H                     0.150613      -0.003127
     11 H                     0.146168       0.002092
     12 C                    -0.204802       0.006363
     13 H                     0.132754       0.000227
  --------------------------------------------------------
  Sum of atomic charges =     0.000000

                    Cartesian Multipole Moments
 -----------------------------------------------------------------
    Charge (ESU x 10^10)
                 0.0000
    Dipole Moment (Debye)
         X      -0.1943      Y       0.1143      Z       0.6868
       Tot       0.7228
    Quadrupole Moments (Debye-Ang)
        XX     -36.2482     XY       2.0214     YY     -41.9739
        XZ      -2.2447     YZ      -1.6691     ZZ     -42.7601

 Frequency:      -187.35                  66.99                 143.42
 Force Cnst:      0.0458                 0.0145                 0.0426
 Red. Mass:       2.2168                 5.4961                 3.5180
 IR Intens:        9.526                  0.055                  1.956
 Frequency:       239.49                 262.79                 359.70
 Force Cnst:      0.1258                 0.1375                 0.1894
 Red. Mass:       3.7232                 3.3786                 2.4844
 IR Intens:        1.998                 12.104                 43.548
 Frequency:       492.88                 538.03                 630.18
 Force Cnst:      0.3569                 0.3918                 0.5764
 Red. Mass:       2.4933                 2.2975                 2.4633
 IR Intens:       25.157                 27.284                 25.807
 Frequency:       719.06                 734.61                 787.51
 Force Cnst:      0.4057                 0.4992                 0.4748
 Red. Mass:       1.3318                 1.5701                 1.2995
 IR Intens:       10.852                109.110                  4.539
 Frequency:       795.51                 821.73                 865.83
 Force Cnst:      0.5570                 0.7260                 1.0375
 Red. Mass:       1.4938                 1.8248                 2.3489
 IR Intens:       34.677                217.009                 36.393
 Frequency:       979.60                1008.69                1068.41
 Force Cnst:      1.3102                 0.9357                 2.7035
 Red. Mass:       2.3174                 1.5608                 4.0198
 IR Intens:       20.100                  0.680                  8.156
 Frequency:      1135.32                1233.08                1246.15
 Force Cnst:      1.5578                 1.0841                 1.1316
 Red. Mass:       2.0512                 1.2102                 1.2368
 IR Intens:       13.493                 30.498                 20.953
 Frequency:      1376.93                1413.02                1446.65
 Force Cnst:      1.4865                 3.0499                 4.0884
 Red. Mass:       1.3307                 2.5926                 3.3157
 IR Intens:       10.946                164.692                 60.752
 Frequency:      1598.44                1633.60                1683.72
 Force Cnst:      1.8256                 9.4729                13.1845
 Red. Mass:       1.2127                 6.0248                 7.8936
 IR Intens:      372.574                 38.049                  1.113
 Frequency:      3020.88                3052.58                3107.89
 Force Cnst:      5.8114                 5.9383                 6.1791
 Red. Mass:       1.0809                 1.0816                 1.0858
 IR Intens:        9.098                 21.582                 17.300
 Frequency:      3124.79                3165.71                3263.08
 Force Cnst:      6.2666                 6.4387                 6.9256
 Red. Mass:       1.0893                 1.0904                 1.1039
 IR Intens:       53.192                 10.684                  0.973

 STANDARD THERMODYNAMIC QUANTITIES AT   298.15 K  AND     1.00 ATM

   This Molecule has  1 Imaginary Frequencies
   Zero point vibrational energy:       60.065 kcal/mol

   Atom    1 Element C  Has Mass   12.00000
   Atom    2 Element C  Has Mass   12.00000
   Atom    3 Element C  Has Mass   12.00000
   Atom    4 Element C  Has Mass   12.00000
   Atom    5 Element C  Has Mass   12.00000
   Atom    6 Element N  Has Mass   14.00307
   Atom    7 Element H  Has Mass    1.00783
   Atom    8 Element H  Has Mass    1.00783
   Atom    9 Element H  Has Mass    1.00783
   Atom   10 Element H  Has Mass    1.00783
   Atom   11 Element H  Has Mass    1.00783
   Atom   12 Element C  Has Mass   12.00000
   Atom   13 Element H  Has Mass    1.00783
   Molecular Mass:    92.050050 amu
   Principal axes and moments of inertia in amu*Bohr^2:
                             1           2           3
    Eigenvalues --      201.17365  1369.90401  1507.38852
          X               0.67949     0.73326     0.02494
          Y               0.65656    -0.62288     0.42539
          Z              -0.32746     0.27267     0.90467
   Rotational Symmetry Number is   1
   The Molecule is an Asymmetric Top
   Translational Enthalpy:        0.889 kcal/mol
   Rotational Enthalpy:           0.889 kcal/mol
   Vibrational Enthalpy:         62.594 kcal/mol
   gas constant (RT):             0.592 kcal/mol
   Translational Entropy:        39.471  cal/mol.K
   Rotational Entropy:           27.520  cal/mol.K
   Vibrational Entropy:          15.006  cal/mol.K

   Total Enthalpy:               64.964 kcal/mol
   Total Entropy:                81.998  cal/mol.K

 Total job time:  561.52s(wall), 556.35s(cpu)
        *  Thank you very much for using Q-Chem.  Have a nice day.  *
