 Q-Chem 5.0, Q-Chem, Inc., Pleasanton, CA (2017)
 Q-Chem 5.0.2 for Intel X86 EM64T Linux

User input:
--------------------------------------------------------------
$molecule
0 2
C        1.9177378580    0.8965913081   -0.3859780095
C       -1.3400193400   -2.5606155081    0.6540690563
C       -1.4392507762   -1.3015991260    1.0181271924
C       -1.4622329765   -0.1466720160    0.0815561733
C       -0.3793473497    0.5442700408   -0.3487866101
N        0.8890879885    0.2162172196    0.0711519273
H        2.8861104368    0.5680725678    0.0127857056
H       -1.3151674258   -3.5302267284    1.1334037572
H       -1.5507675317   -1.0591519888    2.0851404865
H       -2.4406036122    0.1807097904   -0.2685510797
H       -0.5055885116    1.3839095492   -1.0367804810
C        1.8865474151    1.9703258187   -1.3114966776
H        2.8257348864    2.4452861914   -1.6091191684
$end

$rem
method                b3lyp
basis                 6-31+g(d,p)
unrestricted          true
symmetry              off
sym_ignore            true
incdft                false
incfock               0
scf_convergence       6
thresh                14
jobtype               sp
scf_guess             read
scf_algorithm         diis
max_scf_cycles        100
stability_analysis    true
max_cis_cycles        100
cis_n_roots           4
$end

--------------------------------------------------------------

             Standard Nuclear Orientation (Angstroms)
    I     Atom           X                Y                Z
 ----------------------------------------------------------------
    1      C       1.9177378580     0.8965913081    -0.3859780095
    2      C      -1.3400193400    -2.5606155081     0.6540690563
    3      C      -1.4392507762    -1.3015991260     1.0181271924
    4      C      -1.4622329765    -0.1466720160     0.0815561733
    5      C      -0.3793473497     0.5442700408    -0.3487866101
    6      N       0.8890879885     0.2162172196     0.0711519273
    7      H       2.8861104368     0.5680725678     0.0127857056
    8      H      -1.3151674258    -3.5302267284     1.1334037572
    9      H      -1.5507675317    -1.0591519888     2.0851404865
   10      H      -2.4406036122     0.1807097904    -0.2685510797
   11      H      -0.5055885116     1.3839095492    -1.0367804810
   12      C       1.8865474151     1.9703258187    -1.3114966776
   13      H       2.8257348864     2.4452861914    -1.6091191684
 ----------------------------------------------------------------

    2    -286.7302261525      1.52E-09 Convergence criterion met
 Total energy in the final basis set = -286.73022615

         TDDFT/TDA Excitation Energies
 ---------------------------------------------------

 Excited state   1: excitation energy (eV) =    0.5490
 Total energy for state  1:                  -286.71004967 au
    <S**2>     :  0.8758
    Trans. Mom.:  0.0144 X  -0.0915 Y  -0.1079 Z
    Strength   :     0.0002721375
    S(  1) --> V(  1) amplitude =  0.6862 alpha
    D( 24) --> S(  1) amplitude =  0.6813 beta

 Excited state   2: excitation energy (eV) =    1.5845
 Total energy for state  2:                  -286.67199784 au
    <S**2>     :  1.3249
    Trans. Mom.:  0.3870 X   0.4565 Y  -0.3341 Z
    Strength   :     0.0182362761
    D( 22) --> V(  1) amplitude = -0.1503 alpha
    D( 23) --> V(  1) amplitude =  0.2967 alpha
    S(  1) --> V(  1) amplitude = -0.6127 alpha
    D( 22) --> S(  1) amplitude =  0.2326 beta
    D( 23) --> S(  1) amplitude = -0.1970 beta
    D( 24) --> S(  1) amplitude =  0.6158 beta

 Excited state   3: excitation energy (eV) =    2.1980
 Total energy for state  3:                  -286.64945038 au
    <S**2>     :  1.7772
    Trans. Mom.:  0.1541 X   0.3143 Y  -0.2205 Z
    Strength   :     0.0092152666
    D( 23) --> V(  1) amplitude = -0.5337 alpha
    D( 24) --> V(  1) amplitude =  0.6032 alpha
    D( 21) --> S(  1) amplitude =  0.3969 beta
    D( 22) --> S(  1) amplitude =  0.3084 beta

 Excited state   4: excitation energy (eV) =    2.2347
 Total energy for state  4:                  -286.64810424 au
    <S**2>     :  2.0754
    Trans. Mom.: -0.0930 X  -0.2182 Y   0.1526 Z
    Strength   :     0.0043543312
    D( 21) --> V(  1) amplitude = -0.3674 alpha
    D( 22) --> V(  1) amplitude =  0.5148 alpha
    D( 24) --> V(  1) amplitude = -0.3717 alpha
    S(  1) --> V(  2) amplitude =  0.1501 alpha
    D( 22) --> S(  1) amplitude =  0.4672 beta
    D( 23) --> S(  1) amplitude = -0.3694 beta
    D( 24) --> S(  1) amplitude = -0.1888 beta

 ---------------------------------------------------

                    Orbital Energies (a.u.)
 --------------------------------------------------------------

 Alpha MOs
 -- Occupied --
-14.366 -10.246 -10.234 -10.230 -10.227 -10.225 -10.217  -0.949
 -0.821  -0.762  -0.712  -0.633  -0.580  -0.519  -0.504  -0.482
 -0.465  -0.431  -0.413  -0.393  -0.293  -0.286  -0.277  -0.248
 -0.233

 Beta MOs
 -- Occupied --
-14.366 -10.247 -10.234 -10.229 -10.227 -10.219 -10.209  -0.949
 -0.817  -0.753  -0.708  -0.626  -0.569  -0.513  -0.501  -0.470
 -0.463  -0.430  -0.406  -0.393  -0.289  -0.284  -0.273  -0.233

          Ground-State Mulliken Net Atomic Charges

     Atom                 Charge (a.u.)    Spin (a.u.)
  --------------------------------------------------------
      1 C                     0.017993      -0.006640
      2 C                    -0.303272       1.118161
      3 C                    -0.110213      -0.238347
      4 C                     0.154710       0.037502
      5 C                    -0.354951      -0.008959
      6 N                    -0.076667       0.003100
      7 H                     0.136305       0.000707
      8 H                     0.153636       0.007287
      9 H                     0.157725       0.081631
     10 H                     0.150613      -0.003126
     11 H                     0.146168       0.002092
     12 C                    -0.204802       0.006364
     13 H                     0.132754       0.000227
  --------------------------------------------------------
  Sum of atomic charges =     0.000000

                    Cartesian Multipole Moments
 -----------------------------------------------------------------
    Charge (ESU x 10^10)
                 0.0000
    Dipole Moment (Debye)
         X      -0.1943      Y       0.1143      Z       0.6868
       Tot       0.7228
    Quadrupole Moments (Debye-Ang)
        XX     -36.2482     XY       2.0214     YY     -41.9739
        XZ      -2.2447     YZ      -1.6691     ZZ     -42.7601

 Total job time:  168.68s(wall), 167.47s(cpu)
        *  Thank you very much for using Q-Chem.  Have a nice day.  *
