 Q-Chem 5.0, Q-Chem, Inc., Pleasanton, CA (2017)
 Q-Chem 5.0.2 for Intel X86 EM64T Linux

User input:
--------------------------------------------------------------
$molecule
0 2
C        1.6403757167    0.4144566536   -0.0558944265
C       -0.0235008501   -1.2469407775    0.1284806793
C       -1.3421710328   -1.0952186671    0.3438123205
C       -1.7872335261    0.2596298550    0.2631867039
C       -0.6942204125    1.0734142392    0.2679288408
N        0.5535602208    0.6195709439    0.6856862924
H        2.5704664776    0.2544036840    0.5162234270
H        0.6381583548   -2.0228383989    0.4695985770
H       -1.9698004755   -1.9260389159    0.6701427067
H       -2.8300766115    0.5933648555    0.2794053011
H       -0.6977039358    2.1479641100    0.1048747768
C        1.5642211334    0.1712461031   -1.4102823226
H        2.3501660021    0.3641034341   -2.1676406042
$end

$rem
method                b3lyp
basis                 6-31g(d)
unrestricted          true
symmetry              off
sym_ignore            true
incdft                false
incfock               0
scf_convergence       8
thresh                14
jobtype               freq
scf_guess             read
scf_algorithm         diis
max_scf_cycles        100
$end

--------------------------------------------------------------

             Standard Nuclear Orientation (Angstroms)
    I     Atom           X                Y                Z
 ----------------------------------------------------------------
    1      C       1.6403757167     0.4144566536    -0.0558944265
    2      C      -0.0235008501    -1.2469407775     0.1284806793
    3      C      -1.3421710328    -1.0952186671     0.3438123205
    4      C      -1.7872335261     0.2596298550     0.2631867039
    5      C      -0.6942204125     1.0734142392     0.2679288408
    6      N       0.5535602208     0.6195709439     0.6856862924
    7      H       2.5704664776     0.2544036840     0.5162234270
    8      H       0.6381583548    -2.0228383989     0.4695985770
    9      H      -1.9698004755    -1.9260389159     0.6701427067
   10      H      -2.8300766115     0.5933648555     0.2794053011
   11      H      -0.6977039358     2.1479641100     0.1048747768
   12      C       1.5642211334     0.1712461031    -1.4102823226
   13      H       2.3501660021     0.3641034341    -2.1676406042
 ----------------------------------------------------------------

    2    -286.6954455753      1.54E-10 Convergence criterion met
 Total energy in the final basis set = -286.69544558

                    Orbital Energies (a.u.)
 --------------------------------------------------------------

 Alpha MOs
 -- Occupied --
-14.365 -10.229 -10.222 -10.215 -10.206 -10.196 -10.189  -0.947
 -0.817  -0.740  -0.689  -0.620  -0.560  -0.528  -0.497  -0.470
 -0.451  -0.415  -0.394  -0.354  -0.340  -0.293  -0.249  -0.221
 -0.192

 Beta MOs
 -- Occupied --
-14.359 -10.228 -10.226 -10.224 -10.203 -10.190 -10.177  -0.939
 -0.816  -0.737  -0.677  -0.610  -0.560  -0.527  -0.493  -0.461
 -0.440  -0.415  -0.394  -0.355  -0.334  -0.279  -0.223  -0.189

          Ground-State Mulliken Net Atomic Charges

     Atom                 Charge (a.u.)    Spin (a.u.)
  --------------------------------------------------------
      1 C                     0.002442      -0.306377
      2 C                    -0.128838      -0.549528
      3 C                    -0.109077       0.216174
      4 C                    -0.130548      -0.052229
      5 C                     0.047625       0.108970
      6 N                    -0.386010       0.279549
      7 H                     0.150764       0.057286
      8 H                     0.162044      -0.002085
      9 H                     0.160649      -0.034262
     10 H                     0.142760       0.001475
     11 H                     0.150689       0.002275
     12 C                    -0.207520       1.271989
     13 H                     0.145023       0.006764
  --------------------------------------------------------
  Sum of atomic charges =     0.000000

                    Cartesian Multipole Moments
 -----------------------------------------------------------------
    Charge (ESU x 10^10)
                 0.0000
    Dipole Moment (Debye)
         X      -0.4411      Y      -0.3954      Z       0.3737
       Tot       0.7004
    Quadrupole Moments (Debye-Ang)
        XX     -35.4549     XY       0.0084     YY     -37.4414
        XZ      -0.9416     YZ      -2.1229     ZZ     -44.2554

 Frequency:      -820.14                -275.19                 -79.69
 Force Cnst:      2.0717                 0.1132                 0.0136
 Red. Mass:       5.2277                 2.5363                 3.6305
 IR Intens:       40.050                 22.278                  5.967
 Frequency:       165.28                 379.32                 495.67
 Force Cnst:      0.0572                 0.2639                 0.3494
 Red. Mass:       3.5532                 3.1125                 2.4140
 IR Intens:       10.404                  0.825                  2.399
 Frequency:       543.18                 560.96                 606.70
 Force Cnst:      0.3022                 0.4571                 0.3058
 Red. Mass:       1.7385                 2.4655                 1.4102
 IR Intens:       69.947                 26.678                 53.359
 Frequency:       630.50                 780.36                 790.89
 Force Cnst:      0.4862                 0.5618                 0.9005
 Red. Mass:       2.0757                 1.5658                 2.4434
 IR Intens:       42.410                 29.457                  6.932
 Frequency:       815.46                 843.60                 898.89
 Force Cnst:      0.6336                 0.7019                 0.6728
 Red. Mass:       1.6172                 1.6741                 1.4133
 IR Intens:        8.210                 22.640                 10.656
 Frequency:       948.50                 966.26                1021.67
 Force Cnst:      1.1501                 0.7572                 1.0990
 Red. Mass:       2.1698                 1.3765                 1.7870
 IR Intens:       18.689                 21.545                  4.240
 Frequency:      1067.76                1174.90                1206.83
 Force Cnst:      0.9834                 0.9719                 1.4775
 Red. Mass:       1.4640                 1.1951                 1.7218
 IR Intens:        6.506                  3.635                 31.111
 Frequency:      1250.38                1390.65                1439.22
 Force Cnst:      2.2358                 1.8345                 2.7107
 Red. Mass:       2.4271                 1.6100                 2.2211
 IR Intens:        8.316                 14.092                 13.026
 Frequency:      1459.00                1479.05                1599.01
 Force Cnst:      6.6844                 6.9787                 6.9840
 Red. Mass:       5.3297                 5.4145                 4.6361
 IR Intens:       10.641                 13.613                  7.751
 Frequency:      3005.81                3024.37                3134.64
 Force Cnst:      5.7629                 5.8924                 6.3025
 Red. Mass:       1.0826                 1.0934                 1.0886
 IR Intens:       13.912                 33.055                  3.400
 Frequency:      3152.27                3194.74                3333.97
 Force Cnst:      6.3999                 6.5709                 7.1894
 Red. Mass:       1.0931                 1.0927                 1.0978
 IR Intens:        9.442                 15.978                  0.858

 STANDARD THERMODYNAMIC QUANTITIES AT   298.15 K  AND     1.00 ATM

   This Molecule has  3 Imaginary Frequencies
   Zero point vibrational energy:       59.127 kcal/mol

   Atom    1 Element C  Has Mass   12.00000
   Atom    2 Element C  Has Mass   12.00000
   Atom    3 Element C  Has Mass   12.00000
   Atom    4 Element C  Has Mass   12.00000
   Atom    5 Element C  Has Mass   12.00000
   Atom    6 Element N  Has Mass   14.00307
   Atom    7 Element H  Has Mass    1.00783
   Atom    8 Element H  Has Mass    1.00783
   Atom    9 Element H  Has Mass    1.00783
   Atom   10 Element H  Has Mass    1.00783
   Atom   11 Element H  Has Mass    1.00783
   Atom   12 Element C  Has Mass   12.00000
   Atom   13 Element H  Has Mass    1.00783
   Molecular Mass:    92.050050 amu
   Principal axes and moments of inertia in amu*Bohr^2:
                             1           2           3
    Eigenvalues --      324.41980   712.77326   852.84648
          X               0.93779    -0.14655     0.31477
          Y               0.18813     0.97642    -0.10591
          Z              -0.29183     0.15854     0.94324
   Rotational Symmetry Number is   1
   The Molecule is an Asymmetric Top
   Translational Enthalpy:        0.889 kcal/mol
   Rotational Enthalpy:           0.889 kcal/mol
   Vibrational Enthalpy:         60.657 kcal/mol
   gas constant (RT):             0.592 kcal/mol
   Translational Entropy:        39.471  cal/mol.K
   Rotational Entropy:           26.780  cal/mol.K
   Vibrational Entropy:           7.634  cal/mol.K

   Total Enthalpy:               63.027 kcal/mol
   Total Entropy:                73.885  cal/mol.K

 Total job time:  258.82s(wall), 255.72s(cpu)
        *  Thank you very much for using Q-Chem.  Have a nice day.  *
