 Q-Chem 5.0, Q-Chem, Inc., Pleasanton, CA (2017)
 Q-Chem 5.0.2 for Intel X86 EM64T Linux

User input:
--------------------------------------------------------------
$molecule
0 2
C        1.9394910574    0.8996732171   -0.3810573407
C       -1.3595542270   -2.5679001621    0.6502124810
C       -1.4578858236   -1.3091062295    1.0138803516
C       -1.4634304089   -0.1518426926    0.0798301665
C       -0.3543302260    0.5275255446   -0.3329725164
N        0.8923996886    0.1912787148    0.0909921763
H        2.9110659922    0.5815779396    0.0203403107
H       -1.3467403036   -3.5304766142    1.1468095275
H       -1.5759127434   -1.0672327662    2.0804889363
H       -2.4326951989    0.1919576656   -0.2799444214
H       -0.4860124421    1.3716719870   -1.0198392490
C        1.9614523853    1.9292395937   -1.2711397112
H        2.7443933111    2.5407509211   -1.7020784389
$end

$rem
method                b3lyp
basis                 6-31+g(d,p)
unrestricted          true
symmetry              off
sym_ignore            true
incdft                false
incfock               0
scf_convergence       8
thresh                14
jobtype               ts
scf_guess             read
scf_algorithm         diis
max_scf_cycles        100
geom_opt_max_cycles   500
geom_opt_dmax         100
geom_opt_tol_gradient 10
geom_opt_hessian      read
$end

--------------------------------------------------------------

    2    -286.7262343080      6.15E-09 Convergence criterion met
 Total energy in the final basis set = -286.72623431
   18    -286.7281064740      2.52E-09 Convergence criterion met
 Total energy in the final basis set = -286.72810647
   17    -286.7281850272      6.40E-09 Convergence criterion met
 Total energy in the final basis set = -286.72818503
   18    -286.7284416136      4.66E-09 Convergence criterion met
 Total energy in the final basis set = -286.72844161
   18    -286.7289979490      9.51E-09 Convergence criterion met
 Total energy in the final basis set = -286.72899795
   19    -286.7297271349      3.86E-09 Convergence criterion met
 Total energy in the final basis set = -286.72972713
   19    -286.7301859511      5.17E-09 Convergence criterion met
 Total energy in the final basis set = -286.73018595
   21    -286.7302232101      2.04E-09 Convergence criterion met
   23    -286.7302354746      3.69E-09 Convergence criterion met
 Total energy in the final basis set = -286.73023547
   18    -286.7302122792      9.18E-09 Convergence criterion met
 Total energy in the final basis set = -286.73021228
   21    -286.7302243145      3.24E-09 Convergence criterion met
 Total energy in the final basis set = -286.73022431
   20    -286.7302259571      8.96E-09 Convergence criterion met
 Total energy in the final basis set = -286.73022596
   23    -286.7302261750      5.79E-09 Convergence criterion met
 Total energy in the final basis set = -286.73022617
   10    -286.7302261600      7.44E-09 Convergence criterion met
 Total energy in the final basis set = -286.73022616

             Standard Nuclear Orientation (Angstroms)
    I     Atom           X                Y                Z
 ----------------------------------------------------------------
    1      C       1.9177378580     0.8965913081    -0.3859780095
    2      C      -1.3400193400    -2.5606155081     0.6540690563
    3      C      -1.4392507762    -1.3015991260     1.0181271924
    4      C      -1.4622329765    -0.1466720160     0.0815561733
    5      C      -0.3793473497     0.5442700408    -0.3487866101
    6      N       0.8890879885     0.2162172196     0.0711519273
    7      H       2.8861104368     0.5680725678     0.0127857056
    8      H      -1.3151674258    -3.5302267284     1.1334037572
    9      H      -1.5507675317    -1.0591519888     2.0851404865
   10      H      -2.4406036122     0.1807097904    -0.2685510797
   11      H      -0.5055885116     1.3839095492    -1.0367804810
   12      C       1.8865474151     1.9703258187    -1.3114966776
   13      H       2.8257348864     2.4452861914    -1.6091191684
 ----------------------------------------------------------------

   11    -286.7302261526      9.92E-09 Convergence criterion met
 Total energy in the final basis set = -286.73022615
 Final energy is   -286.730226152632
 **  OPTIMIZATION CONVERGED  **

                    Orbital Energies (a.u.)
 --------------------------------------------------------------

 Alpha MOs
 -- Occupied --
-14.366 -10.246 -10.234 -10.230 -10.227 -10.225 -10.217  -0.949
 -0.821  -0.762  -0.712  -0.633  -0.580  -0.519  -0.504  -0.482
 -0.465  -0.431  -0.413  -0.393  -0.293  -0.286  -0.277  -0.248
 -0.233

 Beta MOs
 -- Occupied --
-14.366 -10.247 -10.234 -10.229 -10.227 -10.219 -10.209  -0.949
 -0.817  -0.753  -0.708  -0.626  -0.569  -0.513  -0.501  -0.470
 -0.463  -0.430  -0.406  -0.393  -0.289  -0.284  -0.273  -0.233

          Ground-State Mulliken Net Atomic Charges

     Atom                 Charge (a.u.)    Spin (a.u.)
  --------------------------------------------------------
      1 C                     0.017994      -0.006688
      2 C                    -0.303271       1.118161
      3 C                    -0.110213      -0.238353
      4 C                     0.154709       0.037589
      5 C                    -0.354949      -0.009002
      6 N                    -0.076667       0.003194
      7 H                     0.136305       0.000696
      8 H                     0.153636       0.007288
      9 H                     0.157726       0.081634
     10 H                     0.150613      -0.003130
     11 H                     0.146168       0.002093
     12 C                    -0.204802       0.006301
     13 H                     0.132754       0.000217
  --------------------------------------------------------
  Sum of atomic charges =     0.000000

                    Cartesian Multipole Moments
 -----------------------------------------------------------------
    Charge (ESU x 10^10)
                 0.0000
    Dipole Moment (Debye)
         X      -0.1943      Y       0.1143      Z       0.6869
       Tot       0.7229
    Quadrupole Moments (Debye-Ang)
        XX     -36.2482     XY       2.0215     YY     -41.9736
        XZ      -2.2446     YZ      -1.6690     ZZ     -42.7604

 Total job time:  396.30s(wall), 1351.64s(cpu)
        *  Thank you very much for using Q-Chem.  Have a nice day.  *
