 Q-Chem 5.0, Q-Chem, Inc., Pleasanton, CA (2017)
 Q-Chem 5.0.2 for Intel X86 EM64T Linux

User input:
--------------------------------------------------------------
$molecule
0 2
C        1.9394910574    0.8996732171   -0.3810573407
C       -1.3595542270   -2.5679001621    0.6502124810
C       -1.4578858236   -1.3091062295    1.0138803516
C       -1.4634304089   -0.1518426926    0.0798301665
C       -0.3543302260    0.5275255446   -0.3329725164
N        0.8923996886    0.1912787148    0.0909921763
H        2.9110659922    0.5815779396    0.0203403107
H       -1.3467403036   -3.5304766142    1.1468095275
H       -1.5759127434   -1.0672327662    2.0804889363
H       -2.4326951989    0.1919576656   -0.2799444214
H       -0.4860124421    1.3716719870   -1.0198392490
C        1.9614523853    1.9292395937   -1.2711397112
H        2.7443933111    2.5407509211   -1.7020784389
$end

$rem
method                b3lyp
basis                 6-31+g(d,p)
unrestricted          true
symmetry              off
sym_ignore            true
incdft                false
incfock               0
scf_convergence       8
thresh                14
jobtype               sp
scf_guess             read
scf_algorithm         diis
max_scf_cycles        100
$end

--------------------------------------------------------------

             Standard Nuclear Orientation (Angstroms)
    I     Atom           X                Y                Z
 ----------------------------------------------------------------
    1      C       1.9394910574     0.8996732171    -0.3810573407
    2      C      -1.3595542270    -2.5679001621     0.6502124810
    3      C      -1.4578858236    -1.3091062295     1.0138803516
    4      C      -1.4634304089    -0.1518426926     0.0798301665
    5      C      -0.3543302260     0.5275255446    -0.3329725164
    6      N       0.8923996886     0.1912787148     0.0909921763
    7      H       2.9110659922     0.5815779396     0.0203403107
    8      H      -1.3467403036    -3.5304766142     1.1468095275
    9      H      -1.5759127434    -1.0672327662     2.0804889363
   10      H      -2.4326951989     0.1919576656    -0.2799444214
   11      H      -0.4860124421     1.3716719870    -1.0198392490
   12      C       1.9614523853     1.9292395937    -1.2711397112
   13      H       2.7443933111     2.5407509211    -1.7020784389
 ----------------------------------------------------------------

   18    -286.7262343080      6.37E-09 Convergence criterion met
 Total energy in the final basis set = -286.72623431

                    Orbital Energies (a.u.)
 --------------------------------------------------------------

 Alpha MOs
 -- Occupied --
-14.360 -10.248 -10.232 -10.229 -10.226 -10.222 -10.214  -0.941
 -0.817  -0.764  -0.717  -0.628  -0.577  -0.519  -0.503  -0.485
 -0.478  -0.427  -0.412  -0.388  -0.291  -0.286  -0.277  -0.246
 -0.222

 Beta MOs
 -- Occupied --
-14.360 -10.248 -10.232 -10.229 -10.225 -10.216 -10.207  -0.941
 -0.812  -0.757  -0.711  -0.621  -0.567  -0.513  -0.503  -0.480
 -0.466  -0.427  -0.404  -0.388  -0.288  -0.283  -0.271  -0.221

          Ground-State Mulliken Net Atomic Charges

     Atom                 Charge (a.u.)    Spin (a.u.)
  --------------------------------------------------------
      1 C                    -0.031245      -0.007876
      2 C                    -0.306685       1.116010
      3 C                    -0.104794      -0.232036
      4 C                     0.120995       0.025875
      5 C                    -0.331250      -0.004518
      6 N                    -0.101387       0.002616
      7 H                     0.140446      -0.000234
      8 H                     0.151683       0.009065
      9 H                     0.156512       0.081526
     10 H                     0.148578      -0.002871
     11 H                     0.132495       0.001760
     12 C                    -0.131906       0.010419
     13 H                     0.156558       0.000262
  --------------------------------------------------------
  Sum of atomic charges =     0.000000

                    Cartesian Multipole Moments
 -----------------------------------------------------------------
    Charge (ESU x 10^10)
                 0.0000
    Dipole Moment (Debye)
         X       0.0245      Y       0.7276      Z       0.2400
       Tot       0.7666
    Quadrupole Moments (Debye-Ang)
        XX     -36.2073     XY       2.8843     YY     -40.5020
        XZ      -2.9165     YZ      -3.2080     ZZ     -41.9965

 Total job time:  26.62s(wall), 80.02s(cpu)
        *  Thank you very much for using Q-Chem.  Have a nice day.  *
