 Q-Chem 5.0, Q-Chem, Inc., Pleasanton, CA (2017)
 Q-Chem 5.0.2 for Intel X86 EM64T Linux

User input:
--------------------------------------------------------------
$molecule
0 2
C        1.3374088556    0.8630327542   -0.5692167788
C        0.2717232502   -1.4149392997   -0.2190670591
C       -0.9148941645   -1.0760410417    0.3592297020
C       -1.3808469394    0.2523161617    0.6636972589
C       -0.7390608738    1.4560185790    0.4365928386
N        0.4570638263    1.7816787336   -0.1031862444
H        2.2450018753    1.3291826855   -0.9589944881
H        0.4654123397   -2.4734959299   -0.3795090058
H       -1.5903632012   -1.8875257230    0.6227485735
H       -2.3618319473    0.3238665003    1.1270289569
H       -1.2999171019    2.3394086893    0.7502820903
C        1.3143766211   -0.5156861831   -0.6458662843
H        2.1959274605   -0.9778159267   -1.0837395593
$end

$rem
method                b3lyp
basis                 6-31g(d)
unrestricted          true
symmetry              off
sym_ignore            true
incdft                false
incfock               0
scf_convergence       8
thresh                14
jobtype               opt
scf_guess             read
scf_algorithm         diis
max_scf_cycles        100
geom_opt_tol_gradient 600
geom_opt_tol_displacement 2400
geom_opt_tol_energy   200
geom_opt_max_cycles   100
$end

--------------------------------------------------------------

    2    -286.9243440152      1.03E-09 Convergence criterion met
 Total energy in the final basis set = -286.92434402

             Standard Nuclear Orientation (Angstroms)
    I     Atom           X                Y                Z
 ----------------------------------------------------------------
    1      C       1.3380104452     0.8632113758    -0.5684193730
    2      C       0.2721959964    -1.4150332580    -0.2181545892
    3      C      -0.9149327857    -1.0759368856     0.3590373506
    4      C      -1.3816080068     0.2523262481     0.6623518041
    5      C      -0.7394805647     1.4561489750     0.4358019067
    6      N       0.4576938656     1.7817829344    -0.1025382638
    7      H       2.2444885394     1.3294388040    -0.9606880174
    8      H       0.4651312372    -2.4739833092    -0.3777766339
    9      H      -1.5906872697    -1.8873121279     0.6220588946
   10      H      -2.3622745152     0.3231162227     1.1266259987
   11      H      -1.2990320321     2.3394260992     0.7520480357
   12      C       1.3145447342    -0.5158502530    -0.6457044545
   13      H       2.1959503569    -0.9773348261    -1.0846426580
 ----------------------------------------------------------------

   12    -286.9243454414      6.65E-09 Convergence criterion met
 Total energy in the final basis set = -286.92434544
 Final energy is   -286.924345441404
 **  OPTIMIZATION CONVERGED  **

                    Orbital Energies (a.u.)
 --------------------------------------------------------------

 Alpha MOs
 -- Occupied --
-14.322 -10.232 -10.232 -10.212 -10.211 -10.201 -10.200  -0.922
 -0.818  -0.784  -0.693  -0.667  -0.551  -0.537  -0.518  -0.449
 -0.439  -0.414  -0.394  -0.387  -0.349  -0.322  -0.299  -0.251
 -0.162

 Beta MOs
 -- Occupied --
-14.314 -10.234 -10.233 -10.210 -10.210 -10.196 -10.196  -0.911
 -0.809  -0.777  -0.681  -0.665  -0.546  -0.535  -0.514  -0.447
 -0.438  -0.411  -0.383  -0.373  -0.348  -0.295  -0.276  -0.241

          Ground-State Mulliken Net Atomic Charges

     Atom                 Charge (a.u.)    Spin (a.u.)
  --------------------------------------------------------
      1 C                     0.034503      -0.109372
      2 C                    -0.112065       0.100699
      3 C                    -0.110508       0.086724
      4 C                    -0.132108       0.352457
      5 C                     0.036243      -0.115872
      6 N                    -0.423188       0.386973
      7 H                     0.142708       0.003242
      8 H                     0.141875      -0.006969
      9 H                     0.141999      -0.006300
     10 H                     0.134267      -0.018587
     11 H                     0.142566       0.003563
     12 C                    -0.130723       0.341523
     13 H                     0.134431      -0.018080
  --------------------------------------------------------
  Sum of atomic charges =    -0.000000

                    Cartesian Multipole Moments
 -----------------------------------------------------------------
    Charge (ESU x 10^10)
                -0.0000
    Dipole Moment (Debye)
         X      -0.5580      Y      -2.1692      Z       0.1256
       Tot       2.2434
    Quadrupole Moments (Debye-Ang)
        XX     -36.3971     XY      -1.7212     YY     -41.8622
        XZ      -3.3549     YZ       0.9096     ZZ     -41.7391

 Total job time:  43.14s(wall), 54.26s(cpu)
        *  Thank you very much for using Q-Chem.  Have a nice day.  *
