 Q-Chem 5.0, Q-Chem, Inc., Pleasanton, CA (2017)
 Q-Chem 5.0.2 for Intel X86 EM64T Linux

User input:
--------------------------------------------------------------
$molecule
0 2
C        1.2996058262    0.2660350258    0.3331908980
C        0.6002727092   -1.0020274838   -0.1978148853
C       -0.6447715862   -0.4101298348   -0.9049914339
C       -1.0991204165    0.1891478011    0.3967577251
C       -0.4610978696    1.1018594116   -0.6667973994
N        0.8776952333    1.4291047430   -0.3511848725
H        2.3162468547    0.2171485101    0.7075669742
H        1.1132013688   -1.9340755772   -0.4069191068
H       -1.2159570787   -0.8319764301   -1.7242774415
H       -2.0959177514    0.3279814911    0.8001986054
H       -1.0637964006    1.8218941947   -1.2092389750
C        0.1467154053   -0.4022628063    1.1038276730
H        0.2269237054   -0.7726990451    2.1196822387
$end

$rem
method                b3lyp
basis                 6-31g(d)
unrestricted          true
symmetry              off
sym_ignore            true
incdft                false
incfock               0
scf_convergence       8
thresh                14
jobtype               opt
scf_guess             read
scf_algorithm         diis
max_scf_cycles        100
geom_opt_tol_gradient 600
geom_opt_tol_displacement 2400
geom_opt_tol_energy   200
geom_opt_max_cycles   100
$end

--------------------------------------------------------------

    2    -286.8249819809      2.82E-10 Convergence criterion met
 Total energy in the final basis set = -286.82498198

             Standard Nuclear Orientation (Angstroms)
    I     Atom           X                Y                Z
 ----------------------------------------------------------------
    1      C       1.2996926808     0.2659993385     0.3329256752
    2      C       0.6008809969    -1.0018117271    -0.1983169089
    3      C      -0.6448654894    -0.4104394309    -0.9046345472
    4      C      -1.0992966800     0.1891029758     0.3970415067
    5      C      -0.4611905360     1.1015454596    -0.6673022963
    6      N       0.8774942184     1.4291379244    -0.3511570882
    7      H       2.3159001119     0.2178433345     0.7085892929
    8      H       1.1127777163    -1.9344737833    -0.4071932951
    9      H      -1.2153592490    -0.8321672096    -1.7245622705
   10      H      -2.0956572234     0.3295066374     0.8009468821
   11      H      -1.0640875727     1.8217444434    -1.2093542616
   12      C       0.1464440815    -0.4027753300     1.1035761283
   13      H       0.2272669446    -0.7732126325     2.1194411824
 ----------------------------------------------------------------

   10    -286.8249839490      3.94E-09 Convergence criterion met
 Total energy in the final basis set = -286.82498395
 Final energy is   -286.824983949044
 **  OPTIMIZATION CONVERGED  **

                    Orbital Energies (a.u.)
 --------------------------------------------------------------

 Alpha MOs
 -- Occupied --
-14.335 -10.215 -10.215 -10.207 -10.207 -10.207 -10.206  -0.986
 -0.836  -0.793  -0.649  -0.588  -0.574  -0.542  -0.533  -0.455
 -0.427  -0.415  -0.395  -0.384  -0.337  -0.275  -0.274  -0.248
 -0.212

 Beta MOs
 -- Occupied --
-14.319 -10.217 -10.216 -10.205 -10.205 -10.205 -10.205  -0.976
 -0.811  -0.789  -0.644  -0.585  -0.568  -0.537  -0.529  -0.453
 -0.423  -0.392  -0.389  -0.378  -0.322  -0.269  -0.257  -0.244

          Ground-State Mulliken Net Atomic Charges

     Atom                 Charge (a.u.)    Spin (a.u.)
  --------------------------------------------------------
      1 C                    -0.044944      -0.080301
      2 C                    -0.124904       0.089992
      3 C                    -0.124858       0.089497
      4 C                    -0.124930       0.088778
      5 C                    -0.044707      -0.080256
      6 N                    -0.285889       0.811586
      7 H                     0.149318       0.001044
      8 H                     0.144043      -0.002539
      9 H                     0.144048      -0.002509
     10 H                     0.143988      -0.002454
     11 H                     0.149314       0.001045
     12 C                    -0.124380       0.088559
     13 H                     0.143903      -0.002441
  --------------------------------------------------------
  Sum of atomic charges =     0.000000

                    Cartesian Multipole Moments
 -----------------------------------------------------------------
    Charge (ESU x 10^10)
                -0.0000
    Dipole Moment (Debye)
         X      -1.1908      Y      -1.9365      Z       0.4788
       Tot       2.3232
    Quadrupole Moments (Debye-Ang)
        XX     -38.3796     XY      -4.0923     YY     -43.3592
        XZ       2.2741     YZ       0.3463     ZZ     -38.8779

 Total job time:  16.15s(wall), 48.68s(cpu)
        *  Thank you very much for using Q-Chem.  Have a nice day.  *
