 Q-Chem 5.0, Q-Chem, Inc., Pleasanton, CA (2017)
 Q-Chem 5.0.2 for Intel X86 EM64T Linux

User input:
--------------------------------------------------------------
$molecule
0 2
C        1.6782582310    0.3416816662   -0.3574100181
C        1.1604284498   -0.9503842729   -0.4658007828
C       -0.1624430739   -1.4159576694   -0.2353289727
C       -1.2487844023   -0.6493100443    0.0746349265
C        0.3357064529    2.3912924486    0.2526281374
N        1.0263770291    1.3973522560    0.0977988635
H        2.7219010049    0.5176768931   -0.6036057351
H        1.8866220024   -1.7102272500   -0.7365909169
H       -0.3141238750   -2.4906439912   -0.2549668151
H       -2.3639446395   -1.1408095320    0.1433259432
H        0.2238771263    2.8570784310    1.2449645027
C       -2.2235095231    0.2571722717   -0.0292015829
H       -2.7001766841    0.6064899667    0.8984288881
$end

$rem
method                b3lyp
basis                 6-31+g(d,p)
unrestricted          true
symmetry              off
sym_ignore            true
incdft                false
incfock               0
scf_convergence       8
thresh                14
jobtype               sp
scf_guess             core
scf_guess_mix         5
scf_algorithm         diis
max_scf_cycles        100
$end

--------------------------------------------------------------

             Standard Nuclear Orientation (Angstroms)
    I     Atom           X                Y                Z
 ----------------------------------------------------------------
    1      C       1.6782582310     0.3416816662    -0.3574100181
    2      C       1.1604284498    -0.9503842729    -0.4658007828
    3      C      -0.1624430739    -1.4159576694    -0.2353289727
    4      C      -1.2487844023    -0.6493100443     0.0746349265
    5      C       0.3357064529     2.3912924486     0.2526281374
    6      N       1.0263770291     1.3973522560     0.0977988635
    7      H       2.7219010049     0.5176768931    -0.6036057351
    8      H       1.8866220024    -1.7102272500    -0.7365909169
    9      H      -0.3141238750    -2.4906439912    -0.2549668151
   10      H      -2.3639446395    -1.1408095320     0.1433259432
   11      H       0.2238771263     2.8570784310     1.2449645027
   12      C      -2.2235095231     0.2571722717    -0.0292015829
   13      H      -2.7001766841     0.6064899667     0.8984288881
 ----------------------------------------------------------------

   24    -286.7517119504      7.58E-09 Convergence criterion met
 Total energy in the final basis set = -286.75171195

                    Orbital Energies (a.u.)
 --------------------------------------------------------------

 Alpha MOs
 -- Occupied --
-14.402 -10.255 -10.244 -10.244 -10.239 -10.211 -10.210  -0.975
 -0.860  -0.807  -0.746  -0.665  -0.563  -0.526  -0.520  -0.497
 -0.458  -0.425  -0.406  -0.401  -0.361  -0.340  -0.299  -0.220
 -0.163

 Beta MOs
 -- Occupied --
-14.397 -10.252 -10.242 -10.241 -10.239 -10.212 -10.206  -0.967
 -0.855  -0.803  -0.744  -0.657  -0.559  -0.524  -0.512  -0.491
 -0.456  -0.413  -0.397  -0.394  -0.346  -0.337  -0.276  -0.204

          Ground-State Mulliken Net Atomic Charges

     Atom                 Charge (a.u.)    Spin (a.u.)
  --------------------------------------------------------
      1 C                    -0.174165      -0.242830
      2 C                    -0.066662       0.463824
      3 C                     0.175164      -0.485542
      4 C                     0.734360       0.181137
      5 C                    -0.183819       0.299274
      6 N                     0.005786       0.191121
      7 H                     0.144124       0.007603
      8 H                     0.124075      -0.019693
      9 H                     0.144582       0.005909
     10 H                     0.166521       0.004571
     11 H                     0.138427       0.073365
     12 C                    -1.371987       0.488786
     13 H                     0.163594       0.032475
  --------------------------------------------------------
  Sum of atomic charges =    -0.000000

                    Cartesian Multipole Moments
 -----------------------------------------------------------------
    Charge (ESU x 10^10)
                -0.0000
    Dipole Moment (Debye)
         X       0.3899      Y      -1.7574      Z       2.0620
       Tot       2.7372
    Quadrupole Moments (Debye-Ang)
        XX     -38.6338     XY       3.3604     YY     -41.1843
        XZ      -5.4912     YZ       4.8076     ZZ     -45.2841

 Total job time:  30.74s(wall), 113.03s(cpu)
        *  Thank you very much for using Q-Chem.  Have a nice day.  *
