 Q-Chem 5.0, Q-Chem, Inc., Pleasanton, CA (2017)
 Q-Chem 5.0.2 for Intel X86 EM64T Linux

User input:
--------------------------------------------------------------
$molecule
0 2
C        1.6912549636    0.3586346560   -0.5137566479
C        1.2708136005   -0.9576066303   -0.4562766604
C       -0.0252422287   -1.4843084131   -0.0989833721
C       -1.1167115937   -0.8365109363    0.2963764033
C        0.2439539694    2.4114136485   -0.3063920572
N        0.9583530533    1.4279919887   -0.2213667538
H        2.7236042081    0.5767735663   -0.7765070323
H        2.0261696513   -1.6930983011   -0.7119558158
H       -0.1138252033   -2.5702206241   -0.1549849856
H       -2.9768428065    0.0670633472   -0.0357502653
H       -0.0210001259    3.0308101979    0.5640322183
C       -2.2245550728   -0.2603297666    0.6816983404
H       -2.4359724154   -0.0706127330    1.7338666285
$end

$rem
method                b3lyp
basis                 6-31+g(d,p)
unrestricted          true
symmetry              off
sym_ignore            true
incdft                false
incfock               0
scf_convergence       6
thresh                14
jobtype               sp
scf_guess             read
scf_algorithm         diis
max_scf_cycles        100
stability_analysis    true
max_cis_cycles        100
cis_n_roots           4
$end

--------------------------------------------------------------

             Standard Nuclear Orientation (Angstroms)
    I     Atom           X                Y                Z
 ----------------------------------------------------------------
    1      C       1.6912549636     0.3586346560    -0.5137566479
    2      C       1.2708136005    -0.9576066303    -0.4562766604
    3      C      -0.0252422287    -1.4843084131    -0.0989833721
    4      C      -1.1167115937    -0.8365109363     0.2963764033
    5      C       0.2439539694     2.4114136485    -0.3063920572
    6      N       0.9583530533     1.4279919887    -0.2213667538
    7      H       2.7236042081     0.5767735663    -0.7765070323
    8      H       2.0261696513    -1.6930983011    -0.7119558158
    9      H      -0.1138252033    -2.5702206241    -0.1549849856
   10      H      -2.9768428065     0.0670633472    -0.0357502653
   11      H      -0.0210001259     3.0308101979     0.5640322183
   12      C      -2.2245550728    -0.2603297666     0.6816983404
   13      H      -2.4359724154    -0.0706127330     1.7338666285
 ----------------------------------------------------------------

    2    -286.8552247687      6.15E-09 Convergence criterion met
 Total energy in the final basis set = -286.85522477

         TDDFT/TDA Excitation Energies
 ---------------------------------------------------

 Excited state   1: excitation energy (eV) =    2.2129
 Total energy for state  1:                  -286.77390401 au
    <S**2>     :  0.8063
    Trans. Mom.: -0.1317 X  -0.1305 Y   0.0259 Z
    Strength   :     0.0019007680
    S(  1) --> V(  1) amplitude =  0.9578 alpha

 Excited state   2: excitation energy (eV) =    2.5454
 Total energy for state  2:                  -286.76168329 au
    <S**2>     :  0.8526
    Trans. Mom.: -0.0004 X  -0.1942 Y   0.1127 Z
    Strength   :     0.0031441960
    S(  1) --> V(  2) amplitude =  0.6497 alpha
    D( 24) --> S(  1) amplitude =  0.7404 beta

 Excited state   3: excitation energy (eV) =    3.5227
 Total energy for state  3:                  -286.72576801 au
    <S**2>     :  0.9845
    Trans. Mom.: -0.0047 X  -0.1430 Y   0.0218 Z
    Strength   :     0.0018077831
    D( 24) --> V(  1) amplitude =  0.2015 alpha
    S(  1) --> V(  1) amplitude =  0.1734 alpha
    S(  1) --> V(  3) amplitude =  0.8963 alpha
    S(  1) --> V(  6) amplitude =  0.1521 alpha
    D( 23) --> S(  1) amplitude = -0.1893 beta

 Excited state   4: excitation energy (eV) =    3.8084
 Total energy for state  4:                  -286.71526956 au
    <S**2>     :  0.8814
    Trans. Mom.: -0.2979 X  -0.7594 Y   0.1951 Z
    Strength   :     0.0656399157
    S(  1) --> V(  2) amplitude = -0.3466 alpha
    S(  1) --> V(  3) amplitude = -0.2015 alpha
    D( 23) --> S(  1) amplitude = -0.8397 beta
    D( 24) --> S(  1) amplitude =  0.2830 beta

 ---------------------------------------------------

                    Orbital Energies (a.u.)
 --------------------------------------------------------------

 Alpha MOs
 -- Occupied --
-14.402 -10.251 -10.245 -10.216 -10.211 -10.210 -10.200  -0.977
 -0.825  -0.785  -0.731  -0.664  -0.564  -0.526  -0.518  -0.483
 -0.448  -0.435  -0.427  -0.407  -0.354  -0.329  -0.272  -0.251
 -0.174

 Beta MOs
 -- Occupied --
-14.398 -10.248 -10.245 -10.213 -10.212 -10.205 -10.200  -0.969
 -0.820  -0.781  -0.728  -0.657  -0.558  -0.521  -0.511  -0.479
 -0.443  -0.434  -0.411  -0.396  -0.349  -0.309  -0.271  -0.230

          Ground-State Mulliken Net Atomic Charges

     Atom                 Charge (a.u.)    Spin (a.u.)
  --------------------------------------------------------
      1 C                    -0.240203      -0.209017
      2 C                    -0.066499       0.454729
      3 C                    -0.321650      -0.189894
      4 C                     0.460454       0.270398
      5 C                    -0.142585       0.421063
      6 N                    -0.005096       0.168561
      7 H                     0.146428       0.006669
      8 H                     0.123742      -0.021228
      9 H                     0.151324       0.006160
     10 H                     0.154862       0.020984
     11 H                     0.141990       0.078725
     12 C                    -0.554545      -0.027393
     13 H                     0.151779       0.020242
  --------------------------------------------------------
  Sum of atomic charges =    -0.000000

                    Cartesian Multipole Moments
 -----------------------------------------------------------------
    Charge (ESU x 10^10)
                 0.0000
    Dipole Moment (Debye)
         X       0.6923      Y      -0.0969      Z       0.8061
       Tot       1.0670
    Quadrupole Moments (Debye-Ang)
        XX     -37.5166     XY      -1.1004     YY     -40.3147
        XZ      -2.3899     YZ       3.8848     ZZ     -44.1771

 Total job time:  206.39s(wall), 200.51s(cpu)
        *  Thank you very much for using Q-Chem.  Have a nice day.  *
