 Q-Chem 5.0, Q-Chem, Inc., Pleasanton, CA (2017)
 Q-Chem 5.0.2 for Intel X86 EM64T Linux

User input:
--------------------------------------------------------------
$molecule
0 2
C        1.5946923947    0.3591172785   -0.4408924186
C        1.1285548471   -0.9423504393   -0.5025592229
C       -0.1857827342   -1.4358543184   -0.1788955891
C       -1.2471211881   -0.7048592692    0.2712553316
C       -0.2622270414    1.6374449189    0.3460690644
N        1.0200060253    1.5314231133   -0.0780792536
H        2.6350290854    0.4889117980   -0.7429440390
H        1.8492755458   -1.6831144196   -0.8386175907
H       -0.3357919603   -2.5054768898   -0.3076333120
H       -2.1714435720   -1.2419295732    0.4715289136
H       -0.5251016418    2.6658525330    0.5987115002
C       -1.2792609747    0.7144466683    0.5182814471
H       -2.2208287853    1.1163885995    0.8837751691
$end

$rem
method                b3lyp
basis                 6-31+g(d,p)
unrestricted          true
symmetry              off
sym_ignore            true
incdft                false
incfock               0
scf_convergence       8
thresh                14
jobtype               sp
scf_guess             read
scf_algorithm         diis
max_scf_cycles        100
scf_final_print       1
$end

--------------------------------------------------------------

             Standard Nuclear Orientation (Angstroms)
    I     Atom           X                Y                Z
 ----------------------------------------------------------------
    1      C       1.5946923947     0.3591172785    -0.4408924186
    2      C       1.1285548471    -0.9423504393    -0.5025592229
    3      C      -0.1857827342    -1.4358543184    -0.1788955891
    4      C      -1.2471211881    -0.7048592692     0.2712553316
    5      C      -0.2622270414     1.6374449189     0.3460690644
    6      N       1.0200060253     1.5314231133    -0.0780792536
    7      H       2.6350290854     0.4889117980    -0.7429440390
    8      H       1.8492755458    -1.6831144196    -0.8386175907
    9      H      -0.3357919603    -2.5054768898    -0.3076333120
   10      H      -2.1714435720    -1.2419295732     0.4715289136
   11      H      -0.5251016418     2.6658525330     0.5987115002
   12      C      -1.2792609747     0.7144466683     0.5182814471
   13      H      -2.2208287853     1.1163885995     0.8837751691
 ----------------------------------------------------------------

    2    -286.9462121985      1.06E-09 Convergence criterion met
 Total energy in the final basis set = -286.94621220

                    Orbital Energies (a.u.)
 --------------------------------------------------------------

 Alpha MOs
 -- Occupied --
-14.337 -10.243 -10.243 -10.223 -10.222 -10.212 -10.212  -0.934
 -0.829  -0.795  -0.703  -0.678  -0.562  -0.547  -0.527  -0.458
 -0.449  -0.423  -0.405  -0.395  -0.358  -0.333  -0.310  -0.263
 -0.174

 Beta MOs
 -- Occupied --
-14.329 -10.245 -10.245 -10.222 -10.221 -10.208 -10.208  -0.923
 -0.820  -0.788  -0.692  -0.676  -0.557  -0.544  -0.524  -0.456
 -0.448  -0.420  -0.392  -0.384  -0.357  -0.307  -0.287  -0.254

          Ground-State Mulliken Net Atomic Charges

     Atom                 Charge (a.u.)    Spin (a.u.)
  --------------------------------------------------------
      1 C                    -0.235007      -0.113521
      2 C                     0.101348       0.369000
      3 C                    -0.164660       0.079835
      4 C                    -0.165492       0.077290
      5 C                    -0.234558      -0.114980
      6 N                    -0.176574       0.375492
      7 H                     0.126954       0.003253
      8 H                     0.127312      -0.018617
      9 H                     0.132752      -0.006807
     10 H                     0.132637      -0.006702
     11 H                     0.127137       0.003326
     12 C                     0.100765       0.371140
     13 H                     0.127385      -0.018707
  --------------------------------------------------------
  Sum of atomic charges =    -0.000000

                    Cartesian Multipole Moments
 -----------------------------------------------------------------
    Charge (ESU x 10^10)
                -0.0000
    Dipole Moment (Debye)
         X      -1.3288      Y      -1.9987      Z       0.1086
       Tot       2.4026
    Quadrupole Moments (Debye-Ang)
        XX     -38.7171     XY      -3.6853     YY     -41.5180
        XZ      -2.5836     YZ       1.7727     ZZ     -44.0647

 Total job time:  4.71s(wall), 11.65s(cpu)
        *  Thank you very much for using Q-Chem.  Have a nice day.  *
