 Q-Chem 5.0, Q-Chem, Inc., Pleasanton, CA (2017)
 Q-Chem 5.0.2 for Intel X86 EM64T Linux

User input:
--------------------------------------------------------------
$molecule
0 2
C        1.6280887493    0.3391027060   -0.3019540130
C        1.1393062704   -0.9425637464   -0.4743434477
C       -0.2056342543   -1.4170736337   -0.2709698386
C       -1.2783134949   -0.6850020273    0.1427727917
C       -0.2470394800    1.6189480583    0.4199345590
N        1.0606667123    1.5041511003    0.0879587857
H        2.6914348684    0.4565023492   -0.5223673124
H        1.8646062087   -1.6816373171   -0.8062086005
H       -0.3708195769   -2.4736849397   -0.4720068384
H       -2.2281390324   -1.2061718666    0.2444385915
H       -0.5064384130    2.6398222189    0.7090256910
C       -1.2953814374    0.7195824297    0.4639179646
H       -2.2523371203    1.1280246689    0.7798016675
****
C        1.9264581126    0.3341595586   -0.3725268301
C        1.3271150703   -0.9248753849   -0.5152926331
C       -0.0209415807   -1.0632544753   -0.2332442864
C       -0.7680991809    0.0702843546    0.1945501970
C       -0.0357354549    1.2933685065    0.2991092155
N        1.2554706656    1.4291223117    0.0293988681
H        2.9840418805    0.4722864224   -0.5876893744
H        1.9191232260   -1.7746026924   -0.8435753667
H       -0.5169507418   -2.0254850973   -0.3341788248
H       -2.6957761993   -0.9149933304    0.4206959237
H       -0.5597142285    2.1931996499    0.6225303391
C       -2.1382897738    0.0128020257    0.4988979977
H       -2.6767017952    0.8979881509    0.8213247746
$end

$rem
method                b3lyp
basis                 6-31g(d)
unrestricted          true
symmetry              off
sym_ignore            true
incdft                false
incfock               0
scf_convergence       8
thresh                14
jobtype               fsm
scf_guess             core
scf_guess_mix         5
scf_algorithm         diis
max_scf_cycles        100
fsm_nnode             21
fsm_ngrad             6
fsm_mode              2
fsm_opt_mode          2
$end

--------------------------------------------------------------

   23    -286.9243484626      3.15E-09 Convergence criterion met
 Total energy in the final basis set = -286.92434846
   21    -286.9514673008      3.93E-09 Convergence criterion met
 Total energy in the final basis set = -286.95146730
   23    -286.9197351098      4.41E-09 Convergence criterion met
 Total energy in the final basis set = -286.91973511
   23    -286.9210939297      6.18E-09 Convergence criterion met
 Total energy in the final basis set = -286.92109393
   21    -286.9466698681      5.23E-09 Convergence criterion met
 Total energy in the final basis set = -286.94666987
   21    -286.9483497602      8.14E-09 Convergence criterion met
 Total energy in the final basis set = -286.94834976
   23    -286.9161400958      6.34E-09 Convergence criterion met
 Total energy in the final basis set = -286.91614010
   24    -286.9174729277      3.23E-09 Convergence criterion met
 Total energy in the final basis set = -286.67078867
   26    -286.6721157182      4.57E-09 Convergence criterion met
 Total energy in the final basis set = -286.67211572
   25    -286.6708172219      9.39E-09 Convergence criterion met
 Total energy in the final basis set = -286.67081722
   26    -286.6720963306      4.69E-09 Convergence criterion met
 Total energy in the final basis set = -286.67209633
   25    -286.6708358713      9.26E-09 Convergence criterion met
 Total energy in the final basis set = -286.67083587
   26    -286.6720824703      4.81E-09 Convergence criterion met
 Total energy in the final basis set = -286.67208247
   25    -286.6708268312      9.22E-09 Convergence criterion met
 Total energy in the final basis set = -286.67082683
   26    -286.6720965499      4.85E-09 Convergence criterion met
 Total energy in the final basis set = -286.67209655

                    Orbital Energies (a.u.)
 --------------------------------------------------------------

 Alpha MOs
 -- Occupied --
-14.366 -10.264 -10.246 -10.223 -10.217 -10.204 -10.202  -0.963
 -0.852  -0.795  -0.712  -0.659  -0.557  -0.538  -0.526  -0.457
 -0.440  -0.425  -0.409  -0.400  -0.343  -0.307  -0.298  -0.184
 -0.179

 Beta MOs
 -- Occupied --
-14.365 -10.256 -10.244 -10.220 -10.215 -10.203 -10.202  -0.957
 -0.843  -0.789  -0.704  -0.652  -0.547  -0.534  -0.519  -0.452
 -0.426  -0.418  -0.405  -0.394  -0.333  -0.298  -0.285  -0.179

          Ground-State Mulliken Net Atomic Charges

     Atom                 Charge (a.u.)    Spin (a.u.)
  --------------------------------------------------------
      1 C                    -0.011511       0.161573
      2 C                    -0.104571      -0.005395
      3 C                    -0.143366       0.137680
      4 C                    -0.070003       0.058504
      5 C                    -0.025034       0.441577
      6 N                    -0.319411       0.031817
      7 H                     0.146323      -0.009458
      8 H                     0.140076       0.003370
      9 H                     0.163498      -0.007374
     10 H                     0.131732       0.145211
     11 H                     0.185982       0.039981
     12 C                    -0.246426       0.009069
     13 H                     0.152713      -0.006556
  --------------------------------------------------------
  Sum of atomic charges =    -0.000000

                    Cartesian Multipole Moments
 -----------------------------------------------------------------
    Charge (ESU x 10^10)
                -0.0000
    Dipole Moment (Debye)
         X      -0.0883      Y      -1.1627      Z       0.8874
       Tot       1.4653
    Quadrupole Moments (Debye-Ang)
        XX     -39.9264     XY      -1.0001     YY     -38.8858
        XZ      -4.2610     YZ       2.9479     ZZ     -43.6424

             Standard Nuclear Orientation (Angstroms)
    I     Atom           X                Y                Z
 ----------------------------------------------------------------
    1      C       1.7454678101     0.3339671072    -0.4465498483
    2      C       1.2335012708    -0.9487431784    -0.5248967036
    3      C      -0.0816795760    -1.3194089684    -0.1476469512
    4      C      -1.0096535482    -0.4404239324     0.3787818136
    5      C      -0.1452421553     1.5325112782     0.3305595724
    6      N       1.0726859564     1.4059306321     0.0764228021
    7      H       2.8027740501     0.5074342969    -0.6189196544
    8      H       1.9004216861    -1.7373122706    -0.8541621207
    9      H      -0.4220019384    -2.3401871573    -0.2869882398
   10      H      -2.2477966717    -0.8425479390     0.2784126840
   11      H      -0.5920710148     2.2759722613     0.9846992571
   12      C      -1.8616297500     0.5482381704     0.0083514122
   13      H      -2.3745880207     1.0359808735     0.8508124146
 ----------------------------------------------------------------

 Total job time:  6368.87s(wall), 18011.11s(cpu)
        *  Thank you very much for using Q-Chem.  Have a nice day.  *
