 Q-Chem 5.0, Q-Chem, Inc., Pleasanton, CA (2017)
 Q-Chem 5.0.2 for Intel X86 EM64T Linux

User input:
--------------------------------------------------------------
$molecule
0 2
C        1.7364333303    0.3605354938   -0.4320217329
C        1.2523061019   -0.9309627692   -0.4949115977
C       -0.0348563027   -1.4283226773   -0.0550318263
C       -1.1789798754   -0.7794511196    0.1171095592
C        0.4164427495    2.4130630196    0.2112640032
N        1.0847364425    1.4040354753    0.0750177282
H        2.7651800276    0.5627699124   -0.7206886616
H        1.9585531824   -1.6770365203   -0.8459132591
H       -0.0599927987   -2.4935065776    0.1816885858
H       -3.0942821005   -0.3167112452   -0.5748300718
H        0.2349650511    2.8728331669    1.1955687829
C       -2.3700076378   -0.2510992682    0.2368154316
H       -2.6903100719    0.2752642748    1.1348095131
$end

$rem
method                b3lyp
basis                 6-31+g(d,p)
unrestricted          true
symmetry              off
sym_ignore            true
incdft                false
incfock               0
scf_convergence       8
thresh                14
jobtype               opt
scf_guess             read
scf_algorithm         diis
max_scf_cycles        100
geom_opt_max_cycles   300
$end

--------------------------------------------------------------

   19    -286.8529288893      9.39E-09 Convergence criterion met
 Total energy in the final basis set = -286.85292889
   15    -286.8535940369      9.48E-09 Convergence criterion met
 Total energy in the final basis set = -286.85359404
   16    -286.8542393924      6.87E-09 Convergence criterion met
 Total energy in the final basis set = -286.85423939
   15    -286.8546910962      8.69E-09 Convergence criterion met
 Total energy in the final basis set = -286.85469110
   15    -286.8550761980      7.10E-09 Convergence criterion met
 Total energy in the final basis set = -286.85507620
   13    -286.8551581282      8.69E-09 Convergence criterion met
 Total energy in the final basis set = -286.85515813
   13    -286.8551806107      6.11E-09 Convergence criterion met
 Total energy in the final basis set = -286.85518061
   12    -286.8551929918      9.90E-09 Convergence criterion met
 Total energy in the final basis set = -286.85519299
   12    -286.8552072177      4.93E-09 Convergence criterion met
 Total energy in the final basis set = -286.85520722
   12    -286.8552215774      6.49E-09 Convergence criterion met
 Total energy in the final basis set = -286.85522158
   11    -286.8552243831      6.60E-09 Convergence criterion met
 Total energy in the final basis set = -286.85522438

             Standard Nuclear Orientation (Angstroms)
    I     Atom           X                Y                Z
 ----------------------------------------------------------------
    1      C       1.7499632918     0.3307574642    -0.2904135912
    2      C       1.2859187527    -0.9685149091    -0.3849517773
    3      C      -0.0574665236    -1.4700880354    -0.2168662467
    4      C      -1.1664345375    -0.8112801133     0.1049221996
    5      C       0.3514868919     2.4170349383    -0.0821745308
    6      N       1.0214266140     1.4028913853     0.0029378707
    7      H       2.8116793378     0.5272603711    -0.4191151633
    8      H       2.0432011179    -1.7112238296    -0.6128840204
    9      H      -0.1716484358    -2.5443999186    -0.3678801632
   10      H      -2.9485617845     0.1873022164    -0.3580738996
   11      H       0.0096931990     2.9797286283     0.7998394865
   12      C      -2.2927424939    -0.2228028036     0.4097366061
   13      H      -2.6163273316    -0.1052542286     1.4437996843
 ----------------------------------------------------------------

   10    -286.8552247260      7.19E-09 Convergence criterion met
 Total energy in the final basis set = -286.85522473
 Final energy is   -286.855224725980
 **  OPTIMIZATION CONVERGED  **

                    Orbital Energies (a.u.)
 --------------------------------------------------------------

 Alpha MOs
 -- Occupied --
-14.402 -10.251 -10.245 -10.216 -10.211 -10.210 -10.200  -0.977
 -0.825  -0.785  -0.731  -0.664  -0.564  -0.526  -0.518  -0.483
 -0.448  -0.435  -0.427  -0.407  -0.354  -0.329  -0.272  -0.251
 -0.174

 Beta MOs
 -- Occupied --
-14.398 -10.248 -10.245 -10.213 -10.212 -10.205 -10.200  -0.969
 -0.820  -0.780  -0.728  -0.657  -0.558  -0.522  -0.511  -0.479
 -0.443  -0.434  -0.411  -0.396  -0.350  -0.309  -0.271  -0.230

          Ground-State Mulliken Net Atomic Charges

     Atom                 Charge (a.u.)    Spin (a.u.)
  --------------------------------------------------------
      1 C                    -0.240048      -0.209092
      2 C                    -0.066399       0.454647
      3 C                    -0.320009      -0.190634
      4 C                     0.458126       0.270990
      5 C                    -0.142104       0.420976
      6 N                    -0.005578       0.168537
      7 H                     0.146469       0.006660
      8 H                     0.123742      -0.021217
      9 H                     0.151302       0.006162
     10 H                     0.154828       0.020994
     11 H                     0.142000       0.078727
     12 C                    -0.554061      -0.027016
     13 H                     0.151732       0.020264
  --------------------------------------------------------
  Sum of atomic charges =    -0.000000

                    Cartesian Multipole Moments
 -----------------------------------------------------------------
    Charge (ESU x 10^10)
                 0.0000
    Dipole Moment (Debye)
         X       0.5935      Y      -0.1834      Z       0.8683
       Tot       1.0676
    Quadrupole Moments (Debye-Ang)
        XX     -37.1585     XY      -1.5054     YY     -40.8397
        XZ      -1.5850     YZ       4.0822     ZZ     -44.0014

 Total job time:  287.70s(wall), 948.87s(cpu)
        *  Thank you very much for using Q-Chem.  Have a nice day.  *
