 Q-Chem 5.0, Q-Chem, Inc., Pleasanton, CA (2017)
 Q-Chem 5.0.2 for Intel X86 EM64T Linux

User input:
--------------------------------------------------------------
$molecule
0 2
C        1.6127238806    0.3939076637   -0.3987524957
C        1.0718510134   -0.9376535722   -0.4651087152
C       -0.1756398357   -1.4429260255   -0.2214608286
C       -1.4289383074   -0.8026711817    0.1561468961
C        0.2468096406    2.3243753736    0.4080595534
N        1.0106609416    1.4276779966    0.1014588863
H        2.6249851189    0.5584253981   -0.7559015843
H        1.8216568719   -1.6674849814   -0.7631566279
H       -0.2545233329   -2.5245327108   -0.3228944963
H       -2.1847926371   -1.5135621950    0.5225338161
H        0.2343852563    2.7457921004    1.4169992729
C       -1.8108674774    0.4725687463    0.0732708318
H       -2.7481230360    0.9774945733    0.2776819222
$end

$rem
method                b3lyp
basis                 6-31+g(d,p)
unrestricted          true
symmetry              off
sym_ignore            true
incdft                false
incfock               0
scf_convergence       8
thresh                14
jobtype               opt
scf_guess             read
scf_algorithm         diis
max_scf_cycles        100
geom_opt_max_cycles   300
$end

--------------------------------------------------------------

   22    -286.8121149042      6.25E-09 Convergence criterion met
 Total energy in the final basis set = -286.81211490
   18    -286.8159146284      4.64E-09 Convergence criterion met
 Total energy in the final basis set = -286.81591463
   18    -286.8166070098      2.28E-09 Convergence criterion met
 Total energy in the final basis set = -286.81660701
   18    -286.8303633722      9.49E-09 Convergence criterion met
 Total energy in the final basis set = -286.83036337
   17    -286.8600320991      8.12E-09 Convergence criterion met
 Total energy in the final basis set = -286.86003210
   17    -286.8577577151      9.32E-09 Convergence criterion met
 Total energy in the final basis set = -286.85775772
   17    -286.9032471874      6.16E-09 Convergence criterion met
 Total energy in the final basis set = -286.90324719
   16    -286.9122961978      9.33E-09 Convergence criterion met
   13    -286.9461525563      4.84E-09 Convergence criterion met
 Total energy in the final basis set = -286.94615256
   13    -286.9461691626      4.51E-09 Convergence criterion met
 Total energy in the final basis set = -286.94616916
   12    -286.9461828589      8.24E-09 Convergence criterion met
 Total energy in the final basis set = -286.94618286
   12    -286.9461949207      9.27E-09 Convergence criterion met
 Total energy in the final basis set = -286.94619492
   12    -286.9462044218      9.41E-09 Convergence criterion met
 Total energy in the final basis set = -286.94620442
   12    -286.9462101115      7.19E-09 Convergence criterion met
 Total energy in the final basis set = -286.94621011

             Standard Nuclear Orientation (Angstroms)
    I     Atom           X                Y                Z
 ----------------------------------------------------------------
    1      C       1.5962453252     0.3599950620    -0.4386711547
    2      C       1.1301077776    -0.9414726558    -0.5003379590
    3      C      -0.1842298037    -1.4349765349    -0.1766743252
    4      C      -1.2455682576    -0.7039814857     0.2734765955
    5      C      -0.2606741109     1.6383227024     0.3482903283
    6      N       1.0215589558     1.5323008968    -0.0758579897
    7      H       2.6365820159     0.4897895815    -0.7407227751
    8      H       1.8508284763    -1.6822366361    -0.8363963268
    9      H      -0.3342390298    -2.5045991063    -0.3054120481
   10      H      -2.1698906415    -1.2410517897     0.4737501775
   11      H      -0.5235487113     2.6667303165     0.6009327641
   12      C      -1.2777080442     0.7153244518     0.5205027110
   13      H      -2.2192758548     1.1172663830     0.8859964330
 ----------------------------------------------------------------

   12    -286.9462121985      2.44E-09 Convergence criterion met
 Total energy in the final basis set = -286.94621220
 Final energy is   -286.946212198525
 **  OPTIMIZATION CONVERGED  **

                    Orbital Energies (a.u.)
 --------------------------------------------------------------

 Alpha MOs
 -- Occupied --
-14.337 -10.243 -10.243 -10.223 -10.222 -10.212 -10.212  -0.934
 -0.829  -0.795  -0.703  -0.678  -0.562  -0.547  -0.527  -0.458
 -0.449  -0.423  -0.405  -0.395  -0.358  -0.333  -0.310  -0.263
 -0.174

 Beta MOs
 -- Occupied --
-14.329 -10.245 -10.245 -10.222 -10.221 -10.208 -10.208  -0.923
 -0.820  -0.788  -0.692  -0.676  -0.557  -0.544  -0.524  -0.456
 -0.448  -0.420  -0.392  -0.384  -0.357  -0.307  -0.287  -0.254

          Ground-State Mulliken Net Atomic Charges

     Atom                 Charge (a.u.)    Spin (a.u.)
  --------------------------------------------------------
      1 C                    -0.235007      -0.113522
      2 C                     0.101348       0.369001
      3 C                    -0.164660       0.079832
      4 C                    -0.165492       0.077292
      5 C                    -0.234558      -0.114979
      6 N                    -0.176574       0.375491
      7 H                     0.126954       0.003253
      8 H                     0.127312      -0.018617
      9 H                     0.132753      -0.006806
     10 H                     0.132637      -0.006703
     11 H                     0.127137       0.003326
     12 C                     0.100765       0.371139
     13 H                     0.127385      -0.018707
  --------------------------------------------------------
  Sum of atomic charges =    -0.000000

                    Cartesian Multipole Moments
 -----------------------------------------------------------------
    Charge (ESU x 10^10)
                -0.0000
    Dipole Moment (Debye)
         X      -1.3288      Y      -1.9987      Z       0.1086
       Tot       2.4026
    Quadrupole Moments (Debye-Ang)
        XX     -38.7212     XY      -3.6896     YY     -41.5216
        XZ      -2.5863     YZ       1.7684     ZZ     -44.0643

 Total job time:  1191.02s(wall), 3971.97s(cpu)
        *  Thank you very much for using Q-Chem.  Have a nice day.  *
