 Q-Chem 5.0, Q-Chem, Inc., Pleasanton, CA (2017)
 Q-Chem 5.0.2 for Intel X86 EM64T Linux

User input:
--------------------------------------------------------------
$molecule
0 2
C        1.6276639315    0.3392271855   -0.3027601267
C        1.1393237710   -0.9428352096   -0.4738965665
C       -0.2056741721   -1.4171572286   -0.2711846395
C       -1.2783094952   -0.6848475977    0.1421864018
C       -0.2471559984    1.6191039934    0.4195377458
N        1.0602970564    1.5047078549    0.0861278080
H        2.6912210000    0.4564990081   -0.5222194936
H        1.8652133641   -1.6818652093   -0.8043903605
H       -0.3710696079   -2.4737481844   -0.4722864989
H       -2.2282300129   -1.2058790824    0.2435343208
H       -0.5060666194    2.6396143676    0.7102013760
C       -1.2952218083    0.7195564842    0.4640634259
H       -2.2519914088    1.1276236189    0.7810866077
$end

$rem
method                b3lyp
basis                 6-31g(d)
unrestricted          true
symmetry              off
sym_ignore            true
incdft                false
incfock               0
scf_convergence       8
thresh                14
jobtype               opt
scf_guess             core
scf_guess_mix         5
scf_algorithm         diis
max_scf_cycles        100
geom_opt_max_cycles   300
$end

--------------------------------------------------------------

   23    -286.9243477216      3.74E-09 Convergence criterion met
 Total energy in the final basis set = -286.92434772

             Standard Nuclear Orientation (Angstroms)
    I     Atom           X                Y                Z
 ----------------------------------------------------------------
    1      C       1.6280887493     0.3391027060    -0.3019540130
    2      C       1.1393062704    -0.9425637464    -0.4743434477
    3      C      -0.2056342543    -1.4170736337    -0.2709698386
    4      C      -1.2783134949    -0.6850020273     0.1427727917
    5      C      -0.2470394800     1.6189480583     0.4199345590
    6      N       1.0606667123     1.5041511003     0.0879587857
    7      H       2.6914348684     0.4565023492    -0.5223673124
    8      H       1.8646062087    -1.6816373171    -0.8062086005
    9      H      -0.3708195769    -2.4736849397    -0.4720068384
   10      H      -2.2281390324    -1.2061718666     0.2444385915
   11      H      -0.5064384130     2.6398222189     0.7090256910
   12      C      -1.2953814374     0.7195824297     0.4639179646
   13      H      -2.2523371203     1.1280246689     0.7798016675
 ----------------------------------------------------------------

   18    -286.9243484626      3.10E-09 Convergence criterion met
 Total energy in the final basis set = -286.92434846
 Final energy is   -286.924348462570
 **  OPTIMIZATION CONVERGED  **

                    Orbital Energies (a.u.)
 --------------------------------------------------------------

 Alpha MOs
 -- Occupied --
-14.322 -10.232 -10.232 -10.212 -10.211 -10.201 -10.200  -0.922
 -0.818  -0.784  -0.693  -0.667  -0.551  -0.537  -0.518  -0.449
 -0.439  -0.414  -0.394  -0.386  -0.349  -0.322  -0.299  -0.251
 -0.162

 Beta MOs
 -- Occupied --
-14.314 -10.233 -10.233 -10.210 -10.210 -10.196 -10.196  -0.911
 -0.809  -0.777  -0.681  -0.665  -0.546  -0.535  -0.514  -0.447
 -0.438  -0.411  -0.383  -0.373  -0.348  -0.295  -0.276  -0.241

          Ground-State Mulliken Net Atomic Charges

     Atom                 Charge (a.u.)    Spin (a.u.)
  --------------------------------------------------------
      1 C                     0.036029      -0.113615
      2 C                    -0.132002       0.348663
      3 C                    -0.111010       0.091633
      4 C                    -0.111525       0.095904
      5 C                     0.035293      -0.111554
      6 N                    -0.423412       0.386923
      7 H                     0.142542       0.003451
      8 H                     0.134398      -0.018413
      9 H                     0.141966      -0.006535
     10 H                     0.141917      -0.006740
     11 H                     0.142669       0.003350
     12 C                    -0.131219       0.345181
     13 H                     0.134354      -0.018249
  --------------------------------------------------------
  Sum of atomic charges =    -0.000000

                    Cartesian Multipole Moments
 -----------------------------------------------------------------
    Charge (ESU x 10^10)
                 0.0000
    Dipole Moment (Debye)
         X      -1.2916      Y      -1.8319      Z      -0.1071
       Tot       2.2440
    Quadrupole Moments (Debye-Ang)
        XX     -37.4007     XY      -3.3675     YY     -40.0764
        XZ      -2.1284     YZ       1.5334     ZZ     -42.5223

 Total job time:  47.20s(wall), 121.60s(cpu)
        *  Thank you very much for using Q-Chem.  Have a nice day.  *
