 Q-Chem 5.0, Q-Chem, Inc., Pleasanton, CA (2017)
 Q-Chem 5.0.2 for Intel X86 EM64T Linux

User input:
--------------------------------------------------------------
$molecule
0 2
C        1.9264257874    0.3340537195   -0.3726496423
C        1.3269448631   -0.9246867033   -0.5166790570
C       -0.0208685491   -1.0632001041   -0.2330907724
C       -0.7678824353    0.0698163235    0.1958391018
C       -0.0354307559    1.2928425107    0.2997580462
N        1.2557637047    1.4288456256    0.0303350617
H        2.9840219015    0.4725931536   -0.5873907368
H        1.9188910166   -1.7743289560   -0.8452131148
H       -0.5166556011   -2.0258176856   -0.3327016792
H       -2.6950549531   -0.9138855978    0.4223177669
H       -0.5597696956    2.1927052707    0.6226377799
C       -2.1380275933    0.0131479433    0.4982980790
H       -2.6783576899    0.8979144999    0.8185391671
$end

$rem
method                b3lyp
basis                 6-31g(d)
unrestricted          true
symmetry              off
sym_ignore            true
incdft                false
incfock               0
scf_convergence       8
thresh                14
jobtype               opt
scf_guess             core
scf_guess_mix         5
scf_algorithm         diis
max_scf_cycles        100
geom_opt_max_cycles   300
$end

--------------------------------------------------------------

   21    -286.9514648239      4.34E-09 Convergence criterion met
 Total energy in the final basis set = -286.95146482
   16    -286.9514671878      8.51E-09 Convergence criterion met
 Total energy in the final basis set = -286.95146719

             Standard Nuclear Orientation (Angstroms)
    I     Atom           X                Y                Z
 ----------------------------------------------------------------
    1      C       1.9264581126     0.3341595586    -0.3725268301
    2      C       1.3271150703    -0.9248753849    -0.5152926331
    3      C      -0.0209415807    -1.0632544753    -0.2332442864
    4      C      -0.7680991809     0.0702843546     0.1945501970
    5      C      -0.0357354549     1.2933685065     0.2991092155
    6      N       1.2554706656     1.4291223117     0.0293988681
    7      H       2.9840418805     0.4722864224    -0.5876893744
    8      H       1.9191232260    -1.7746026924    -0.8435753667
    9      H      -0.5169507418    -2.0254850973    -0.3341788248
   10      H      -2.6957761993    -0.9149933304     0.4206959237
   11      H      -0.5597142285     2.1931996499     0.6225303391
   12      C      -2.1382897738     0.0128020257     0.4988979977
   13      H      -2.6767017952     0.8979881509     0.8213247746
 ----------------------------------------------------------------

   16    -286.9514673081      8.53E-09 Convergence criterion met
 Total energy in the final basis set = -286.95146731
 Final energy is   -286.951467308126
 **  OPTIMIZATION CONVERGED  **

                    Orbital Energies (a.u.)
 --------------------------------------------------------------

 Alpha MOs
 -- Occupied --
-14.330 -10.226 -10.224 -10.210 -10.208 -10.203 -10.200  -0.940
 -0.818  -0.778  -0.695  -0.631  -0.601  -0.521  -0.493  -0.468
 -0.425  -0.415  -0.403  -0.401  -0.367  -0.315  -0.283  -0.252
 -0.193

 Beta MOs
 -- Occupied --
-14.332 -10.223 -10.220 -10.211 -10.206 -10.201 -10.193  -0.939
 -0.813  -0.772  -0.677  -0.627  -0.594  -0.517  -0.491  -0.465
 -0.422  -0.410  -0.399  -0.394  -0.365  -0.295  -0.270  -0.254

          Ground-State Mulliken Net Atomic Charges

     Atom                 Charge (a.u.)    Spin (a.u.)
  --------------------------------------------------------
      1 C                     0.030657       0.270064
      2 C                    -0.134510      -0.134764
      3 C                    -0.156612       0.247112
      4 C                     0.208667      -0.200715
      5 C                    -0.008419       0.242284
      6 N                    -0.402192      -0.110340
      7 H                     0.143450      -0.014123
      8 H                     0.138656       0.005318
      9 H                     0.139944      -0.011463
     10 H                     0.152010      -0.038400
     11 H                     0.140217      -0.012061
     12 C                    -0.407083       0.795314
     13 H                     0.155216      -0.038225
  --------------------------------------------------------
  Sum of atomic charges =    -0.000000

                    Cartesian Multipole Moments
 -----------------------------------------------------------------
    Charge (ESU x 10^10)
                -0.0000
    Dipole Moment (Debye)
         X      -1.0174      Y      -1.8581      Z      -0.1814
       Tot       2.1262
    Quadrupole Moments (Debye-Ang)
        XX     -37.5356     XY      -3.6126     YY     -40.7298
        XZ      -2.1577     YZ       1.4219     ZZ     -42.5154

 Total job time:  57.02s(wall), 157.36s(cpu)
        *  Thank you very much for using Q-Chem.  Have a nice day.  *
