 Q-Chem 5.0, Q-Chem, Inc., Pleasanton, CA (2017)
 Q-Chem 5.0.2 for Intel X86 EM64T Linux

User input:
--------------------------------------------------------------
$molecule
0 2
C        1.7454678101    0.3339671072   -0.4465498483
C        1.2335012708   -0.9487431784   -0.5248967036
C       -0.0816795760   -1.3194089684   -0.1476469512
C       -1.0096535482   -0.4404239324    0.3787818136
C       -0.1452421553    1.5325112782    0.3305595724
N        1.0726859564    1.4059306321    0.0764228021
H        2.8027740501    0.5074342969   -0.6189196544
H        1.9004216861   -1.7373122706   -0.8541621207
H       -0.4220019384   -2.3401871573   -0.2869882398
H       -2.2477966717   -0.8425479390    0.2784126840
H       -0.5920710148    2.2759722613    0.9846992571
C       -1.8616297500    0.5482381704    0.0083514122
H       -2.3745880207    1.0359808735    0.8508124146
$end

$rem
method                b3lyp
basis                 6-31g(d)
unrestricted          true
symmetry              off
sym_ignore            true
incdft                false
incfock               0
scf_convergence       8
thresh                14
jobtype               freq
scf_guess             read
scf_algorithm         diis
max_scf_cycles        100
$end

--------------------------------------------------------------

             Standard Nuclear Orientation (Angstroms)
    I     Atom           X                Y                Z
 ----------------------------------------------------------------
    1      C       1.7454678101     0.3339671072    -0.4465498483
    2      C       1.2335012708    -0.9487431784    -0.5248967036
    3      C      -0.0816795760    -1.3194089684    -0.1476469512
    4      C      -1.0096535482    -0.4404239324     0.3787818136
    5      C      -0.1452421553     1.5325112782     0.3305595724
    6      N       1.0726859564     1.4059306321     0.0764228021
    7      H       2.8027740501     0.5074342969    -0.6189196544
    8      H       1.9004216861    -1.7373122706    -0.8541621207
    9      H      -0.4220019384    -2.3401871573    -0.2869882398
   10      H      -2.2477966717    -0.8425479390     0.2784126840
   11      H      -0.5920710148     2.2759722613     0.9846992571
   12      C      -1.8616297500     0.5482381704     0.0083514122
   13      H      -2.3745880207     1.0359808735     0.8508124146
 ----------------------------------------------------------------

    2    -286.6850732954      1.98E-09 Convergence criterion met
 Total energy in the final basis set = -286.68507330

                    Orbital Energies (a.u.)
 --------------------------------------------------------------

 Alpha MOs
 -- Occupied --
-14.371 -10.265 -10.244 -10.222 -10.218 -10.204 -10.202  -0.959
 -0.843  -0.791  -0.710  -0.656  -0.554  -0.536  -0.522  -0.455
 -0.440  -0.423  -0.407  -0.397  -0.341  -0.310  -0.294  -0.187
 -0.182

 Beta MOs
 -- Occupied --
-14.369 -10.257 -10.243 -10.220 -10.217 -10.203 -10.200  -0.952
 -0.834  -0.785  -0.703  -0.648  -0.544  -0.531  -0.514  -0.451
 -0.425  -0.414  -0.402  -0.390  -0.331  -0.300  -0.284  -0.178

          Ground-State Mulliken Net Atomic Charges

     Atom                 Charge (a.u.)    Spin (a.u.)
  --------------------------------------------------------
      1 C                    -0.017244       0.100704
      2 C                    -0.097965       0.018062
      3 C                    -0.154465       0.089708
      4 C                    -0.071281       0.076822
      5 C                    -0.018329       0.432034
      6 N                    -0.314570       0.076759
      7 H                     0.146383      -0.006391
      8 H                     0.139891       0.004590
      9 H                     0.160730      -0.004259
     10 H                     0.142872       0.129535
     11 H                     0.188483       0.053985
     12 C                    -0.257389       0.033638
     13 H                     0.152884      -0.005187
  --------------------------------------------------------
  Sum of atomic charges =    -0.000000

                    Cartesian Multipole Moments
 -----------------------------------------------------------------
    Charge (ESU x 10^10)
                -0.0000
    Dipole Moment (Debye)
         X      -0.1071      Y      -1.0353      Z       1.0390
       Tot       1.4706
    Quadrupole Moments (Debye-Ang)
        XX     -39.7930     XY      -0.9838     YY     -38.4896
        XZ      -4.4154     YZ       3.1059     ZZ     -43.6382

 Frequency:     -1192.75                -553.42                -250.44
 Force Cnst:      1.2981                 0.4012                 0.0981
 Red. Mass:       1.5487                 2.2234                 2.6545
 IR Intens:       51.808                100.110                 31.782
 Frequency:      -162.58                 245.33                 385.06
 Force Cnst:      0.0788                 0.1527                 0.4633
 Red. Mass:       5.0579                 4.3052                 5.3032
 IR Intens:       15.206                  8.915                 10.160
 Frequency:       451.21                 501.17                 542.74
 Force Cnst:      0.6460                 0.4772                 0.4633
 Red. Mass:       5.3854                 3.2246                 2.6695
 IR Intens:        3.542                 13.910                  8.503
 Frequency:       568.09                 697.09                 785.70
 Force Cnst:      0.4588                 0.3861                 0.5019
 Red. Mass:       2.4128                 1.3485                 1.3800
 IR Intens:       25.703                 38.574                 21.502
 Frequency:       815.08                 899.53                 913.18
 Force Cnst:      1.1459                 0.9608                 0.6473
 Red. Mass:       2.9275                 2.0154                 1.3175
 IR Intens:       10.181                  7.458                 14.891
 Frequency:       991.37                1022.44                1024.73
 Force Cnst:      0.7931                 1.3138                 1.2695
 Red. Mass:       1.3697                 2.1330                 2.0519
 IR Intens:      172.123                 15.493                 11.129
 Frequency:      1098.22                1161.72                1232.23
 Force Cnst:      0.8683                 1.1939                 1.0323
 Red. Mass:       1.2219                 1.5015                 1.1539
 IR Intens:       50.739                 14.036                 11.927
 Frequency:      1251.05                1396.84                1481.86
 Force Cnst:      1.2061                 1.7130                 2.4717
 Red. Mass:       1.3079                 1.4901                 1.9104
 IR Intens:        9.081                 13.271                 10.359
 Frequency:      1496.89                1550.24                1699.81
 Force Cnst:      4.0743                 3.0362                 8.6151
 Red. Mass:       3.0862                 2.1443                 5.0607
 IR Intens:        6.089                 33.679                 41.177
 Frequency:      1740.37                3019.63                3158.09
 Force Cnst:      3.8717                 5.8366                 6.4407
 Red. Mass:       2.1695                 1.0864                 1.0960
 IR Intens:      210.785                 96.489                 18.569
 Frequency:      3204.67                3210.78                3230.00
 Force Cnst:      6.5610                 6.6083                 6.7259
 Red. Mass:       1.0843                 1.0880                 1.0942
 IR Intens:        1.961                  8.584                 16.658

 STANDARD THERMODYNAMIC QUANTITIES AT   298.15 K  AND     1.00 ATM

   This Molecule has  4 Imaginary Frequencies
   Zero point vibrational energy:       56.861 kcal/mol

   Atom    1 Element C  Has Mass   12.00000
   Atom    2 Element C  Has Mass   12.00000
   Atom    3 Element C  Has Mass   12.00000
   Atom    4 Element C  Has Mass   12.00000
   Atom    5 Element C  Has Mass   12.00000
   Atom    6 Element N  Has Mass   14.00307
   Atom    7 Element H  Has Mass    1.00783
   Atom    8 Element H  Has Mass    1.00783
   Atom    9 Element H  Has Mass    1.00783
   Atom   10 Element H  Has Mass    1.00783
   Atom   11 Element H  Has Mass    1.00783
   Atom   12 Element C  Has Mass   12.00000
   Atom   13 Element H  Has Mass    1.00783
   Molecular Mass:    92.050050 amu
   Principal axes and moments of inertia in amu*Bohr^2:
                             1           2           3
    Eigenvalues --      409.53967   555.03187   937.77489
          X               0.97835     0.09034     0.18621
          Y              -0.05977     0.98470    -0.16372
          Z              -0.19815     0.14904     0.96877
   Rotational Symmetry Number is   1
   The Molecule is an Asymmetric Top
   Translational Enthalpy:        0.889 kcal/mol
   Rotational Enthalpy:           0.889 kcal/mol
   Vibrational Enthalpy:         58.277 kcal/mol
   gas constant (RT):             0.592 kcal/mol
   Translational Entropy:        39.471  cal/mol.K
   Rotational Entropy:           26.858  cal/mol.K
   Vibrational Entropy:           6.804  cal/mol.K

   Total Enthalpy:               60.647 kcal/mol
   Total Entropy:                73.132  cal/mol.K

 Total job time:  272.64s(wall), 263.15s(cpu)
        *  Thank you very much for using Q-Chem.  Have a nice day.  *
