 Q-Chem 5.0, Q-Chem, Inc., Pleasanton, CA (2017)
 Q-Chem 5.0.2 for Intel X86 EM64T Linux

User input:
--------------------------------------------------------------
$molecule
0 2
C        1.6785464666    0.3352611048   -0.3613352551
C        1.1694094979   -0.9570213969   -0.4617101894
C       -0.1580320710   -1.4169480602   -0.2342493720
C       -1.2327166987   -0.6371626153    0.0660957876
C        0.2671468820    2.3395170552    0.2395492853
N        1.0168896825    1.3847012150    0.0984742634
H        2.7211379649    0.5205224674   -0.6069269653
H        1.8968954922   -1.7196608419   -0.7227645928
H       -0.3175947196   -2.4905721151   -0.2527017869
H       -2.3664168573   -1.0978249425    0.0958645375
H        0.1574807603    2.8196367116    1.2282475142
C       -2.1818893057    0.2990605156   -0.0045888631
H       -2.6306689958    0.6319020759    0.9449220745
$end

$rem
method                b3lyp
basis                 6-31+g(d,p)
unrestricted          true
symmetry              off
sym_ignore            true
incdft                false
incfock               0
scf_convergence       6
thresh                14
jobtype               sp
scf_guess             read
scf_algorithm         diis
max_scf_cycles        100
stability_analysis    true
max_cis_cycles        100
cis_n_roots           4
$end

--------------------------------------------------------------

             Standard Nuclear Orientation (Angstroms)
    I     Atom           X                Y                Z
 ----------------------------------------------------------------
    1      C       1.6785464666     0.3352611048    -0.3613352551
    2      C       1.1694094979    -0.9570213969    -0.4617101894
    3      C      -0.1580320710    -1.4169480602    -0.2342493720
    4      C      -1.2327166987    -0.6371626153     0.0660957876
    5      C       0.2671468820     2.3395170552     0.2395492853
    6      N       1.0168896825     1.3847012150     0.0984742634
    7      H       2.7211379649     0.5205224674    -0.6069269653
    8      H       1.8968954922    -1.7196608419    -0.7227645928
    9      H      -0.3175947196    -2.4905721151    -0.2527017869
   10      H      -2.3664168573    -1.0978249425     0.0958645375
   11      H       0.1574807603     2.8196367116     1.2282475142
   12      C      -2.1818893057     0.2990605156    -0.0045888631
   13      H      -2.6306689958     0.6319020759     0.9449220745
 ----------------------------------------------------------------

    2    -286.7515275752      5.98E-09 Convergence criterion met
 Total energy in the final basis set = -286.75152758

         TDDFT/TDA Excitation Energies
 ---------------------------------------------------

 Excited state   1: excitation energy (eV) =    1.5394
 Total energy for state  1:                  -286.69495508 au
    <S**2>     :  0.9531
    Trans. Mom.:  0.1723 X  -0.0150 Y  -0.0522 Z
    Strength   :     0.0012308132
    S(  1) --> V(  1) amplitude =  0.9475 alpha
    D( 24) --> S(  1) amplitude = -0.2177 beta

 Excited state   2: excitation energy (eV) =    2.0322
 Total energy for state  2:                  -286.67684427 au
    <S**2>     :  0.8189
    Trans. Mom.:  0.2037 X   0.2910 Y  -0.0043 Z
    Strength   :     0.0062829823
    S(  1) --> V(  1) amplitude =  0.1774 alpha
    S(  1) --> V(  2) amplitude = -0.5295 alpha
    D( 24) --> S(  1) amplitude =  0.7999 beta

 Excited state   3: excitation energy (eV) =    2.4067
 Total energy for state  3:                  -286.66308332 au
    <S**2>     :  1.6459
    Trans. Mom.: -0.1742 X  -0.1679 Y  -0.0197 Z
    Strength   :     0.0034735823
    D( 24) --> V(  1) amplitude =  0.5606 alpha
    S(  1) --> V(  2) amplitude = -0.2980 alpha
    S(  1) --> V(  3) amplitude =  0.5108 alpha
    S(  1) --> V(  4) amplitude = -0.2481 alpha
    D( 24) --> S(  1) amplitude = -0.2728 beta
    D( 24) --> V(  1) amplitude = -0.3746 beta

 Excited state   4: excitation energy (eV) =    2.8090
 Total energy for state  4:                  -286.64829764 au
    <S**2>     :  1.4000
    Trans. Mom.:  0.2310 X   0.1047 Y   0.0765 Z
    Strength   :     0.0048305934
    S(  1) --> V(  2) amplitude =  0.4961 alpha
    S(  1) --> V(  3) amplitude = -0.1742 alpha
    D( 24) --> S(  1) amplitude =  0.1743 beta
    D( 24) --> V(  1) amplitude = -0.7890 beta

 ---------------------------------------------------

                    Orbital Energies (a.u.)
 --------------------------------------------------------------

 Alpha MOs
 -- Occupied --
-14.400 -10.255 -10.244 -10.244 -10.238 -10.211 -10.210  -0.974
 -0.860  -0.807  -0.745  -0.665  -0.562  -0.526  -0.520  -0.497
 -0.456  -0.425  -0.406  -0.401  -0.361  -0.340  -0.299  -0.219
 -0.164

 Beta MOs
 -- Occupied --
-14.396 -10.252 -10.242 -10.241 -10.239 -10.212 -10.206  -0.966
 -0.855  -0.803  -0.744  -0.657  -0.558  -0.524  -0.511  -0.490
 -0.454  -0.414  -0.397  -0.393  -0.346  -0.336  -0.277  -0.204

          Ground-State Mulliken Net Atomic Charges

     Atom                 Charge (a.u.)    Spin (a.u.)
  --------------------------------------------------------
      1 C                    -0.173877      -0.235737
      2 C                    -0.058179       0.453413
      3 C                     0.182457      -0.452934
      4 C                     0.828480       0.151738
      5 C                    -0.189956       0.301840
      6 N                     0.003037       0.200454
      7 H                     0.143444       0.007870
      8 H                     0.124572      -0.019307
      9 H                     0.145012       0.005275
     10 H                     0.167633       0.004727
     11 H                     0.137801       0.076076
     12 C                    -1.476149       0.474387
     13 H                     0.165727       0.032200
  --------------------------------------------------------
  Sum of atomic charges =     0.000000

                    Cartesian Multipole Moments
 -----------------------------------------------------------------
    Charge (ESU x 10^10)
                 0.0000
    Dipole Moment (Debye)
         X       0.3903      Y      -1.7822      Z       2.0078
       Tot       2.7129
    Quadrupole Moments (Debye-Ang)
        XX     -38.8082     XY       3.4702     YY     -41.0991
        XZ      -5.4203     YZ       4.7631     ZZ     -45.1813

 Total job time:  201.07s(wall), 188.97s(cpu)
        *  Thank you very much for using Q-Chem.  Have a nice day.  *
