 Q-Chem 5.0, Q-Chem, Inc., Pleasanton, CA (2017)
 Q-Chem 5.0.2 for Intel X86 EM64T Linux

User input:
--------------------------------------------------------------
$molecule
0 2
C        1.6785464666    0.3352611048   -0.3613352551
C        1.1694094979   -0.9570213969   -0.4617101894
C       -0.1580320710   -1.4169480602   -0.2342493720
C       -1.2327166987   -0.6371626153    0.0660957876
C        0.2671468820    2.3395170552    0.2395492853
N        1.0168896825    1.3847012150    0.0984742634
H        2.7211379649    0.5205224674   -0.6069269653
H        1.8968954922   -1.7196608419   -0.7227645928
H       -0.3175947196   -2.4905721151   -0.2527017869
H       -2.3664168573   -1.0978249425    0.0958645375
H        0.1574807603    2.8196367116    1.2282475142
C       -2.1818893057    0.2990605156   -0.0045888631
H       -2.6306689958    0.6319020759    0.9449220745
$end

$rem
method                b3lyp
basis                 6-31+g(d,p)
unrestricted          true
symmetry              off
sym_ignore            true
incdft                false
incfock               0
scf_convergence       8
thresh                14
jobtype               freq
scf_guess             read
scf_algorithm         diis
max_scf_cycles        100
$end

--------------------------------------------------------------

             Standard Nuclear Orientation (Angstroms)
    I     Atom           X                Y                Z
 ----------------------------------------------------------------
    1      C       1.6785464666     0.3352611048    -0.3613352551
    2      C       1.1694094979    -0.9570213969    -0.4617101894
    3      C      -0.1580320710    -1.4169480602    -0.2342493720
    4      C      -1.2327166987    -0.6371626153     0.0660957876
    5      C       0.2671468820     2.3395170552     0.2395492853
    6      N       1.0168896825     1.3847012150     0.0984742634
    7      H       2.7211379649     0.5205224674    -0.6069269653
    8      H       1.8968954922    -1.7196608419    -0.7227645928
    9      H      -0.3175947196    -2.4905721151    -0.2527017869
   10      H      -2.3664168573    -1.0978249425     0.0958645375
   11      H       0.1574807603     2.8196367116     1.2282475142
   12      C      -2.1818893057     0.2990605156    -0.0045888631
   13      H      -2.6306689958     0.6319020759     0.9449220745
 ----------------------------------------------------------------

    2    -286.7515275753      5.13E-09 Convergence criterion met
 Total energy in the final basis set = -286.75152758

                    Orbital Energies (a.u.)
 --------------------------------------------------------------

 Alpha MOs
 -- Occupied --
-14.400 -10.255 -10.244 -10.244 -10.238 -10.211 -10.210  -0.974
 -0.860  -0.807  -0.745  -0.665  -0.562  -0.526  -0.520  -0.497
 -0.456  -0.425  -0.406  -0.401  -0.361  -0.340  -0.299  -0.219
 -0.164

 Beta MOs
 -- Occupied --
-14.396 -10.252 -10.242 -10.241 -10.239 -10.212 -10.206  -0.966
 -0.855  -0.803  -0.744  -0.657  -0.558  -0.524  -0.511  -0.490
 -0.454  -0.414  -0.397  -0.393  -0.346  -0.336  -0.277  -0.204

          Ground-State Mulliken Net Atomic Charges

     Atom                 Charge (a.u.)    Spin (a.u.)
  --------------------------------------------------------
      1 C                    -0.173877      -0.235737
      2 C                    -0.058179       0.453413
      3 C                     0.182457      -0.452934
      4 C                     0.828480       0.151737
      5 C                    -0.189956       0.301840
      6 N                     0.003037       0.200453
      7 H                     0.143444       0.007870
      8 H                     0.124572      -0.019307
      9 H                     0.145012       0.005275
     10 H                     0.167632       0.004727
     11 H                     0.137801       0.076076
     12 C                    -1.476150       0.474387
     13 H                     0.165727       0.032200
  --------------------------------------------------------
  Sum of atomic charges =    -0.000000

                    Cartesian Multipole Moments
 -----------------------------------------------------------------
    Charge (ESU x 10^10)
                -0.0000
    Dipole Moment (Debye)
         X       0.3903      Y      -1.7822      Z       2.0078
       Tot       2.7129
    Quadrupole Moments (Debye-Ang)
        XX     -38.8082     XY       3.4702     YY     -41.0991
        XZ      -5.4203     YZ       4.7631     ZZ     -45.1813

 Frequency:      -838.80                  62.27                 115.59
 Force Cnst:      0.6005                 0.0078                 0.0385
 Red. Mass:       1.4487                 3.4327                 4.8896
 IR Intens:       42.240                  1.851                  1.528
 Frequency:       177.33                 244.33                 296.00
 Force Cnst:      0.1115                 0.1194                 0.1668
 Red. Mass:       6.0157                 3.3951                 3.2301
 IR Intens:        0.301                  8.231                 19.858
 Frequency:       356.85                 419.35                 490.25
 Force Cnst:      0.2218                 0.1967                 0.4462
 Red. Mass:       2.9564                 1.8982                 3.1508
 IR Intens:       16.362                 32.190                  3.209
 Frequency:       606.88                 660.91                 707.31
 Force Cnst:      0.4275                 0.4361                 0.3741
 Red. Mass:       1.9698                 1.6944                 1.2693
 IR Intens:       17.920                 42.683                 41.000
 Frequency:       805.00                 828.92                 845.69
 Force Cnst:      0.6457                 0.7899                 0.6112
 Red. Mass:       1.6911                 1.9512                 1.4505
 IR Intens:        9.545                 42.754                249.499
 Frequency:       877.19                 924.72                 965.47
 Force Cnst:      0.5597                 1.0957                 1.0137
 Red. Mass:       1.2345                 2.1748                 1.8459
 IR Intens:       31.479                150.289                176.615
 Frequency:      1030.01                1141.19                1167.23
 Force Cnst:      1.6640                 0.9256                 1.2359
 Red. Mass:       2.6621                 1.2063                 1.5396
 IR Intens:       64.392                 21.461                 35.531
 Frequency:      1243.20                1395.89                1466.81
 Force Cnst:      1.2599                 1.9029                 2.6464
 Red. Mass:       1.3835                 1.6576                 2.0876
 IR Intens:        2.279                  0.482                  6.722
 Frequency:      1483.44                1781.48                1952.03
 Force Cnst:      2.9597                13.9011                19.9749
 Red. Mass:       2.2828                 7.4342                 8.8974
 IR Intens:        3.970                210.103                 64.276
 Frequency:      2323.70                2953.65                3018.56
 Force Cnst:      3.4048                 5.6212                 5.8502
 Red. Mass:       1.0702                 1.0936                 1.0897
 IR Intens:       21.377                 73.513                 22.607
 Frequency:      3178.01                3190.47                3204.56
 Force Cnst:      6.4557                 6.5179                 6.6068
 Red. Mass:       1.0849                 1.0868                 1.0920
 IR Intens:        0.538                  7.074                  5.305

 STANDARD THERMODYNAMIC QUANTITIES AT   298.15 K  AND     1.00 ATM

   This Molecule has  1 Imaginary Frequencies
   Zero point vibrational energy:       57.060 kcal/mol

   Atom    1 Element C  Has Mass   12.00000
   Atom    2 Element C  Has Mass   12.00000
   Atom    3 Element C  Has Mass   12.00000
   Atom    4 Element C  Has Mass   12.00000
   Atom    5 Element C  Has Mass   12.00000
   Atom    6 Element N  Has Mass   14.00307
   Atom    7 Element H  Has Mass    1.00783
   Atom    8 Element H  Has Mass    1.00783
   Atom    9 Element H  Has Mass    1.00783
   Atom   10 Element H  Has Mass    1.00783
   Atom   11 Element H  Has Mass    1.00783
   Atom   12 Element C  Has Mass   12.00000
   Atom   13 Element H  Has Mass    1.00783
   Molecular Mass:    92.050050 amu
   Principal axes and moments of inertia in amu*Bohr^2:
                             1           2           3
    Eigenvalues --      505.19817   658.47968  1146.93616
          X               0.79883    -0.58806     0.12667
          Y               0.60155     0.78041    -0.17059
          Z               0.00146     0.21247     0.97717
   Rotational Symmetry Number is   1
   The Molecule is an Asymmetric Top
   Translational Enthalpy:        0.889 kcal/mol
   Rotational Enthalpy:           0.889 kcal/mol
   Vibrational Enthalpy:         60.056 kcal/mol
   gas constant (RT):             0.592 kcal/mol
   Translational Entropy:        39.471  cal/mol.K
   Rotational Entropy:           27.436  cal/mol.K
   Vibrational Entropy:          18.144  cal/mol.K

   Total Enthalpy:               62.426 kcal/mol
   Total Entropy:                85.051  cal/mol.K

 Total job time:  534.72s(wall), 524.81s(cpu)
        *  Thank you very much for using Q-Chem.  Have a nice day.  *
