 Q-Chem 5.0, Q-Chem, Inc., Pleasanton, CA (2017)
 Q-Chem 5.0.2 for Intel X86 EM64T Linux

User input:
--------------------------------------------------------------
$molecule
0 2
C        1.6785464666    0.3352611048   -0.3613352551
C        1.1694094979   -0.9570213969   -0.4617101894
C       -0.1580320710   -1.4169480602   -0.2342493720
C       -1.2327166987   -0.6371626153    0.0660957876
C        0.2671468820    2.3395170552    0.2395492853
N        1.0168896825    1.3847012150    0.0984742634
H        2.7211379649    0.5205224674   -0.6069269653
H        1.8968954922   -1.7196608419   -0.7227645928
H       -0.3175947196   -2.4905721151   -0.2527017869
H       -2.3664168573   -1.0978249425    0.0958645375
H        0.1574807603    2.8196367116    1.2282475142
C       -2.1818893057    0.2990605156   -0.0045888631
H       -2.6306689958    0.6319020759    0.9449220745
$end

$rem
method                b3lyp
basis                 6-31+g(d,p)
unrestricted          true
symmetry              off
sym_ignore            true
incdft                false
incfock               0
scf_convergence       8
thresh                14
jobtype               ts
scf_guess             read
scf_algorithm         diis
max_scf_cycles        100
geom_opt_max_cycles   500
geom_opt_dmax         100
geom_opt_tol_gradient 10
geom_opt_hessian      read
$end

--------------------------------------------------------------

    2    -286.7515275752      1.44E-09 Convergence criterion met
 Total energy in the final basis set = -286.75152758
   16    -286.7516678949      5.59E-09 Convergence criterion met
 Total energy in the final basis set = -286.75166789
   15    -286.7517115734      9.08E-09 Convergence criterion met
 Total energy in the final basis set = -286.75171157
   12    -286.7517119471      6.06E-09 Convergence criterion met
 Total energy in the final basis set = -286.75171195

             Standard Nuclear Orientation (Angstroms)
    I     Atom           X                Y                Z
 ----------------------------------------------------------------
    1      C       1.6782582310     0.3416816662    -0.3574100181
    2      C       1.1604284498    -0.9503842729    -0.4658007828
    3      C      -0.1624430739    -1.4159576694    -0.2353289727
    4      C      -1.2487844023    -0.6493100443     0.0746349265
    5      C       0.3357064529     2.3912924486     0.2526281374
    6      N       1.0263770291     1.3973522560     0.0977988635
    7      H       2.7219010049     0.5176768931    -0.6036057351
    8      H       1.8866220024    -1.7102272500    -0.7365909169
    9      H      -0.3141238750    -2.4906439912    -0.2549668151
   10      H      -2.3639446395    -1.1408095320     0.1433259432
   11      H       0.2238771263     2.8570784310     1.2449645027
   12      C      -2.2235095231     0.2571722717    -0.0292015829
   13      H      -2.7001766841     0.6064899667     0.8984288881
 ----------------------------------------------------------------

   10    -286.7517119504      5.72E-09 Convergence criterion met
 Total energy in the final basis set = -286.75171195
 Final energy is   -286.751711950435
 **  OPTIMIZATION CONVERGED  **

                    Orbital Energies (a.u.)
 --------------------------------------------------------------

 Alpha MOs
 -- Occupied --
-14.402 -10.255 -10.244 -10.244 -10.239 -10.211 -10.210  -0.975
 -0.860  -0.807  -0.746  -0.665  -0.563  -0.526  -0.520  -0.497
 -0.458  -0.425  -0.406  -0.401  -0.361  -0.340  -0.299  -0.220
 -0.163

 Beta MOs
 -- Occupied --
-14.397 -10.252 -10.242 -10.241 -10.239 -10.212 -10.206  -0.967
 -0.855  -0.803  -0.744  -0.657  -0.559  -0.524  -0.512  -0.491
 -0.456  -0.413  -0.397  -0.394  -0.346  -0.337  -0.276  -0.204

          Ground-State Mulliken Net Atomic Charges

     Atom                 Charge (a.u.)    Spin (a.u.)
  --------------------------------------------------------
      1 C                    -0.174165      -0.242826
      2 C                    -0.066662       0.463821
      3 C                     0.175164      -0.485534
      4 C                     0.734360       0.181131
      5 C                    -0.183819       0.299267
      6 N                     0.005786       0.191125
      7 H                     0.144124       0.007603
      8 H                     0.124075      -0.019693
      9 H                     0.144582       0.005908
     10 H                     0.166521       0.004571
     11 H                     0.138427       0.073365
     12 C                    -1.371987       0.488787
     13 H                     0.163594       0.032475
  --------------------------------------------------------
  Sum of atomic charges =    -0.000000

                    Cartesian Multipole Moments
 -----------------------------------------------------------------
    Charge (ESU x 10^10)
                -0.0000
    Dipole Moment (Debye)
         X       0.3899      Y      -1.7574      Z       2.0620
       Tot       2.7372
    Quadrupole Moments (Debye-Ang)
        XX     -38.6338     XY       3.3604     YY     -41.1843
        XZ      -5.4912     YZ       4.8076     ZZ     -45.2841

 Total job time:  100.55s(wall), 342.60s(cpu)
        *  Thank you very much for using Q-Chem.  Have a nice day.  *
