 Q-Chem 5.0, Q-Chem, Inc., Pleasanton, CA (2017)
 Q-Chem 5.0.2 for Intel X86 EM64T Linux

User input:
--------------------------------------------------------------
$molecule
0 2
C        1.6785464666    0.3352611048   -0.3613352551
C        1.1694094979   -0.9570213969   -0.4617101894
C       -0.1580320710   -1.4169480602   -0.2342493720
C       -1.2327166987   -0.6371626153    0.0660957876
C        0.2671468820    2.3395170552    0.2395492853
N        1.0168896825    1.3847012150    0.0984742634
H        2.7211379649    0.5205224674   -0.6069269653
H        1.8968954922   -1.7196608419   -0.7227645928
H       -0.3175947196   -2.4905721151   -0.2527017869
H       -2.3664168573   -1.0978249425    0.0958645375
H        0.1574807603    2.8196367116    1.2282475142
C       -2.1818893057    0.2990605156   -0.0045888631
H       -2.6306689958    0.6319020759    0.9449220745
$end

$rem
method                b3lyp
basis                 6-31g(d)
unrestricted          true
symmetry              off
sym_ignore            true
incdft                false
incfock               0
scf_convergence       8
thresh                14
jobtype               sp
scf_guess             read
scf_algorithm         diis
max_scf_cycles        100
$end

--------------------------------------------------------------

             Standard Nuclear Orientation (Angstroms)
    I     Atom           X                Y                Z
 ----------------------------------------------------------------
    1      C       1.6785464666     0.3352611048    -0.3613352551
    2      C       1.1694094979    -0.9570213969    -0.4617101894
    3      C      -0.1580320710    -1.4169480602    -0.2342493720
    4      C      -1.2327166987    -0.6371626153     0.0660957876
    5      C       0.2671468820     2.3395170552     0.2395492853
    6      N       1.0168896825     1.3847012150     0.0984742634
    7      H       2.7211379649     0.5205224674    -0.6069269653
    8      H       1.8968954922    -1.7196608419    -0.7227645928
    9      H      -0.3175947196    -2.4905721151    -0.2527017869
   10      H      -2.3664168573    -1.0978249425     0.0958645375
   11      H       0.1574807603     2.8196367116     1.2282475142
   12      C      -2.1818893057     0.2990605156    -0.0045888631
   13      H      -2.6306689958     0.6319020759     0.9449220745
 ----------------------------------------------------------------

    2    -286.7235106067      6.05E-09 Convergence criterion met
 Total energy in the final basis set = -286.72351061

                    Orbital Energies (a.u.)
 --------------------------------------------------------------

 Alpha MOs
 -- Occupied --
-14.386 -10.242 -10.230 -10.230 -10.226 -10.198 -10.198  -0.960
 -0.848  -0.794  -0.733  -0.653  -0.552  -0.516  -0.510  -0.486
 -0.445  -0.414  -0.395  -0.390  -0.348  -0.328  -0.287  -0.207
 -0.150

 Beta MOs
 -- Occupied --
-14.382 -10.239 -10.229 -10.228 -10.225 -10.200 -10.193  -0.952
 -0.843  -0.790  -0.732  -0.645  -0.547  -0.514  -0.501  -0.480
 -0.443  -0.404  -0.386  -0.381  -0.332  -0.324  -0.263  -0.191

          Ground-State Mulliken Net Atomic Charges

     Atom                 Charge (a.u.)    Spin (a.u.)
  --------------------------------------------------------
      1 C                    -0.022794      -0.188708
      2 C                    -0.098218       0.381180
      3 C                    -0.240075      -0.144524
      4 C                     0.040532       0.193386
      5 C                    -0.124364       0.330407
      6 N                    -0.206122       0.185757
      7 H                     0.160733       0.007891
      8 H                     0.131556      -0.019214
      9 H                     0.152996       0.005508
     10 H                     0.196307       0.008010
     11 H                     0.155473       0.074127
     12 C                    -0.318503       0.134918
     13 H                     0.172478       0.031261
  --------------------------------------------------------
  Sum of atomic charges =     0.000000

                    Cartesian Multipole Moments
 -----------------------------------------------------------------
    Charge (ESU x 10^10)
                -0.0000
    Dipole Moment (Debye)
         X       0.3204      Y      -1.6710      Z       1.8459
       Tot       2.5105
    Quadrupole Moments (Debye-Ang)
        XX     -37.2507     XY       3.2281     YY     -39.3749
        XZ      -4.8373     YZ       3.9615     ZZ     -43.2108

 Total job time:  4.64s(wall), 6.68s(cpu)
        *  Thank you very much for using Q-Chem.  Have a nice day.  *
