 Q-Chem 5.0, Q-Chem, Inc., Pleasanton, CA (2017)
 Q-Chem 5.0.2 for Intel X86 EM64T Linux

User input:
--------------------------------------------------------------
$molecule
0 2
C        1.6782582310    0.3416816662   -0.3574100181
C        1.1604284498   -0.9503842729   -0.4658007828
C       -0.1624430739   -1.4159576694   -0.2353289727
C       -1.2487844023   -0.6493100443    0.0746349265
C        0.3357064529    2.3912924486    0.2526281374
N        1.0263770291    1.3973522560    0.0977988635
H        2.7219010049    0.5176768931   -0.6036057351
H        1.8866220024   -1.7102272500   -0.7365909169
H       -0.3141238750   -2.4906439912   -0.2549668151
H       -2.3639446395   -1.1408095320    0.1433259432
H        0.2238771263    2.8570784310    1.2449645027
C       -2.2235095231    0.2571722717   -0.0292015829
H       -2.7001766841    0.6064899667    0.8984288881
$end

$rem
method                b3lyp
basis                 6-31+g(d,p)
unrestricted          true
symmetry              off
sym_ignore            true
incdft                false
incfock               0
scf_convergence       8
thresh                14
jobtype               freq
scf_guess             read
scf_algorithm         diis
max_scf_cycles        100
$end

--------------------------------------------------------------

             Standard Nuclear Orientation (Angstroms)
    I     Atom           X                Y                Z
 ----------------------------------------------------------------
    1      C       1.6782582310     0.3416816662    -0.3574100181
    2      C       1.1604284498    -0.9503842729    -0.4658007828
    3      C      -0.1624430739    -1.4159576694    -0.2353289727
    4      C      -1.2487844023    -0.6493100443     0.0746349265
    5      C       0.3357064529     2.3912924486     0.2526281374
    6      N       1.0263770291     1.3973522560     0.0977988635
    7      H       2.7219010049     0.5176768931    -0.6036057351
    8      H       1.8866220024    -1.7102272500    -0.7365909169
    9      H      -0.3141238750    -2.4906439912    -0.2549668151
   10      H      -2.3639446395    -1.1408095320     0.1433259432
   11      H       0.2238771263     2.8570784310     1.2449645027
   12      C      -2.2235095231     0.2571722717    -0.0292015829
   13      H      -2.7001766841     0.6064899667     0.8984288881
 ----------------------------------------------------------------

    2    -286.7517119505      1.53E-09 Convergence criterion met
 Total energy in the final basis set = -286.75171195

                    Orbital Energies (a.u.)
 --------------------------------------------------------------

 Alpha MOs
 -- Occupied --
-14.402 -10.255 -10.244 -10.244 -10.239 -10.211 -10.210  -0.975
 -0.860  -0.807  -0.746  -0.665  -0.563  -0.526  -0.520  -0.497
 -0.458  -0.425  -0.406  -0.401  -0.361  -0.340  -0.299  -0.220
 -0.163

 Beta MOs
 -- Occupied --
-14.397 -10.252 -10.242 -10.241 -10.239 -10.212 -10.206  -0.967
 -0.855  -0.803  -0.744  -0.657  -0.559  -0.524  -0.512  -0.491
 -0.456  -0.413  -0.397  -0.394  -0.346  -0.337  -0.276  -0.204

          Ground-State Mulliken Net Atomic Charges

     Atom                 Charge (a.u.)    Spin (a.u.)
  --------------------------------------------------------
      1 C                    -0.174165      -0.242827
      2 C                    -0.066662       0.463822
      3 C                     0.175164      -0.485533
      4 C                     0.734361       0.181132
      5 C                    -0.183819       0.299267
      6 N                     0.005785       0.191126
      7 H                     0.144124       0.007603
      8 H                     0.124075      -0.019693
      9 H                     0.144582       0.005908
     10 H                     0.166521       0.004571
     11 H                     0.138427       0.073365
     12 C                    -1.371988       0.488784
     13 H                     0.163594       0.032475
  --------------------------------------------------------
  Sum of atomic charges =    -0.000000

                    Cartesian Multipole Moments
 -----------------------------------------------------------------
    Charge (ESU x 10^10)
                -0.0000
    Dipole Moment (Debye)
         X       0.3899      Y      -1.7574      Z       2.0620
       Tot       2.7372
    Quadrupole Moments (Debye-Ang)
        XX     -38.6338     XY       3.3604     YY     -41.1843
        XZ      -5.4912     YZ       4.8076     ZZ     -45.2841

 Frequency:      -868.26                  64.27                 106.06
 Force Cnst:      0.6382                 0.0082                 0.0326
 Red. Mass:       1.4367                 3.3723                 4.9135
 IR Intens:       53.908                  1.916                  0.964
 Frequency:       176.98                 247.20                 292.66
 Force Cnst:      0.1075                 0.1128                 0.1723
 Red. Mass:       5.8271                 3.1341                 3.4141
 IR Intens:        0.475                  7.230                 17.974
 Frequency:       352.70                 409.59                 483.76
 Force Cnst:      0.2050                 0.1919                 0.4382
 Red. Mass:       2.7969                 1.9416                 3.1781
 IR Intens:       18.420                 27.822                  2.623
 Frequency:       603.14                 656.61                 703.87
 Force Cnst:      0.4159                 0.4536                 0.3741
 Red. Mass:       1.9404                 1.7858                 1.2815
 IR Intens:       18.601                 42.463                 41.623
 Frequency:       801.66                 827.19                 839.47
 Force Cnst:      0.6580                 0.7625                 0.6007
 Red. Mass:       1.7378                 1.8915                 1.4467
 IR Intens:       25.190                 31.896                279.459
 Frequency:       875.77                 917.95                 956.62
 Force Cnst:      0.5542                 0.9472                 1.1318
 Red. Mass:       1.2263                 1.9080                 2.0992
 IR Intens:       25.165                207.771                157.630
 Frequency:      1026.42                1152.38                1171.99
 Force Cnst:      1.6960                 1.0271                 1.1235
 Red. Mass:       2.7322                 1.3128                 1.3882
 IR Intens:       55.364                 19.617                 40.976
 Frequency:      1242.74                1394.06                1466.07
 Force Cnst:      1.2863                 1.9139                 2.6713
 Red. Mass:       1.4136                 1.6716                 2.1094
 IR Intens:        2.233                  0.601                  6.784
 Frequency:      1478.52                1769.99                1963.91
 Force Cnst:      2.7599                13.6381                20.1102
 Red. Mass:       2.1428                 7.3886                 8.8496
 IR Intens:        2.602                187.221                 74.060
 Frequency:      2335.65                2979.89                3034.47
 Force Cnst:      3.4412                 5.7278                 5.9134
 Red. Mass:       1.0706                 1.0948                 1.0900
 IR Intens:       23.234                 72.958                 22.157
 Frequency:      3181.68                3191.67                3207.81
 Force Cnst:      6.4701                 6.5219                 6.6188
 Red. Mass:       1.0848                 1.0866                 1.0917
 IR Intens:        0.538                  6.045                  6.008

 STANDARD THERMODYNAMIC QUANTITIES AT   298.15 K  AND     1.00 ATM

   This Molecule has  1 Imaginary Frequencies
   Zero point vibrational energy:       57.058 kcal/mol

   Atom    1 Element C  Has Mass   12.00000
   Atom    2 Element C  Has Mass   12.00000
   Atom    3 Element C  Has Mass   12.00000
   Atom    4 Element C  Has Mass   12.00000
   Atom    5 Element C  Has Mass   12.00000
   Atom    6 Element N  Has Mass   14.00307
   Atom    7 Element H  Has Mass    1.00783
   Atom    8 Element H  Has Mass    1.00783
   Atom    9 Element H  Has Mass    1.00783
   Atom   10 Element H  Has Mass    1.00783
   Atom   11 Element H  Has Mass    1.00783
   Atom   12 Element C  Has Mass   12.00000
   Atom   13 Element H  Has Mass    1.00783
   Molecular Mass:    92.050050 amu
   Principal axes and moments of inertia in amu*Bohr^2:
                             1           2           3
    Eigenvalues --      502.23521   686.75544  1171.36549
          X               0.78403    -0.60825     0.12378
          Y               0.62063     0.76479    -0.17296
          Z               0.01054     0.21243     0.97712
   Rotational Symmetry Number is   1
   The Molecule is an Asymmetric Top
   Translational Enthalpy:        0.889 kcal/mol
   Rotational Enthalpy:           0.889 kcal/mol
   Vibrational Enthalpy:         60.082 kcal/mol
   gas constant (RT):             0.592 kcal/mol
   Translational Entropy:        39.471  cal/mol.K
   Rotational Entropy:           27.493  cal/mol.K
   Vibrational Entropy:          18.351  cal/mol.K

   Total Enthalpy:               62.452 kcal/mol
   Total Entropy:                85.315  cal/mol.K

 Total job time:  534.38s(wall), 523.85s(cpu)
        *  Thank you very much for using Q-Chem.  Have a nice day.  *
