 Q-Chem 5.0, Q-Chem, Inc., Pleasanton, CA (2017)
 Q-Chem 5.0.2 for Intel X86 EM64T Linux

User input:
--------------------------------------------------------------
$molecule
0 2
C        1.7454678101    0.3339671072   -0.4465498483
C        1.2335012708   -0.9487431784   -0.5248967036
C       -0.0816795760   -1.3194089684   -0.1476469512
C       -1.0096535482   -0.4404239324    0.3787818136
C       -0.1452421553    1.5325112782    0.3305595724
N        1.0726859564    1.4059306321    0.0764228021
H        2.8027740501    0.5074342969   -0.6189196544
H        1.9004216861   -1.7373122706   -0.8541621207
H       -0.4220019384   -2.3401871573   -0.2869882398
H       -2.2477966717   -0.8425479390    0.2784126840
H       -0.5920710148    2.2759722613    0.9846992571
C       -1.8616297500    0.5482381704    0.0083514122
H       -2.3745880207    1.0359808735    0.8508124146
$end

$rem
method                b3lyp
basis                 6-31g(d)
unrestricted          true
symmetry              off
sym_ignore            true
incdft                false
incfock               0
scf_convergence       8
thresh                14
jobtype               sp
scf_guess             core
scf_guess_mix         5
scf_algorithm         diis
max_scf_cycles        100
$end

--------------------------------------------------------------

             Standard Nuclear Orientation (Angstroms)
    I     Atom           X                Y                Z
 ----------------------------------------------------------------
    1      C       1.7454678101     0.3339671072    -0.4465498483
    2      C       1.2335012708    -0.9487431784    -0.5248967036
    3      C      -0.0816795760    -1.3194089684    -0.1476469512
    4      C      -1.0096535482    -0.4404239324     0.3787818136
    5      C      -0.1452421553     1.5325112782     0.3305595724
    6      N       1.0726859564     1.4059306321     0.0764228021
    7      H       2.8027740501     0.5074342969    -0.6189196544
    8      H       1.9004216861    -1.7373122706    -0.8541621207
    9      H      -0.4220019384    -2.3401871573    -0.2869882398
   10      H      -2.2477966717    -0.8425479390     0.2784126840
   11      H      -0.5920710148     2.2759722613     0.9846992571
   12      C      -1.8616297500     0.5482381704     0.0083514122
   13      H      -2.3745880207     1.0359808735     0.8508124146
 ----------------------------------------------------------------

   27    -286.6850732866      4.48E-09 Convergence criterion met
 Total energy in the final basis set = -286.68507329

                    Orbital Energies (a.u.)
 --------------------------------------------------------------

 Alpha MOs
 -- Occupied --
-14.371 -10.265 -10.244 -10.222 -10.218 -10.204 -10.202  -0.959
 -0.843  -0.791  -0.710  -0.656  -0.554  -0.536  -0.522  -0.455
 -0.440  -0.423  -0.407  -0.397  -0.341  -0.310  -0.294  -0.187
 -0.182

 Beta MOs
 -- Occupied --
-14.369 -10.257 -10.243 -10.220 -10.217 -10.203 -10.200  -0.952
 -0.834  -0.785  -0.703  -0.648  -0.544  -0.531  -0.514  -0.451
 -0.425  -0.414  -0.402  -0.390  -0.331  -0.300  -0.284  -0.178

          Ground-State Mulliken Net Atomic Charges

     Atom                 Charge (a.u.)    Spin (a.u.)
  --------------------------------------------------------
      1 C                    -0.017244       0.100703
      2 C                    -0.097965       0.018063
      3 C                    -0.154465       0.089704
      4 C                    -0.071281       0.076824
      5 C                    -0.018329       0.432034
      6 N                    -0.314570       0.076759
      7 H                     0.146383      -0.006391
      8 H                     0.139891       0.004590
      9 H                     0.160730      -0.004259
     10 H                     0.142872       0.129535
     11 H                     0.188483       0.053985
     12 C                    -0.257389       0.033639
     13 H                     0.152884      -0.005187
  --------------------------------------------------------
  Sum of atomic charges =    -0.000000

                    Cartesian Multipole Moments
 -----------------------------------------------------------------
    Charge (ESU x 10^10)
                -0.0000
    Dipole Moment (Debye)
         X      -0.1071      Y      -1.0353      Z       1.0390
       Tot       1.4706
    Quadrupole Moments (Debye-Ang)
        XX     -39.7930     XY      -0.9838     YY     -38.4896
        XZ      -4.4154     YZ       3.1059     ZZ     -43.6382

 Total job time:  27.81s(wall), 70.56s(cpu)
        *  Thank you very much for using Q-Chem.  Have a nice day.  *
