 Q-Chem 5.0, Q-Chem, Inc., Pleasanton, CA (2017)
 Q-Chem 5.0.2 for Intel X86 EM64T Linux

User input:
--------------------------------------------------------------
$molecule
0 2
C        1.3040196554    0.7956888597   -0.7236635384
C        0.4945328874   -1.2768841593    0.4993852125
C       -0.8222316272   -0.9830105157    0.6927735538
C       -1.5124867511    0.2121169756    0.2815345910
C       -0.9989830858    1.3069394214   -0.3897422234
N        0.2330528547    1.6156848636   -0.8559364668
H        2.2056516302    1.2288584877   -1.1621699808
H        0.8542421306   -2.2302521277    0.8807860513
H       -1.4271471095   -1.7241576763    1.2115871739
H       -2.5703245594    0.2645616038    0.5272875448
H       -1.7228495174    2.0991423409   -0.5943288963
C        1.4773709690   -0.4518761504   -0.1561241677
H        2.4851525232   -0.8568119233   -0.2113888539
$end

$rem
method                b3lyp
basis                 6-31g(d)
unrestricted          true
symmetry              off
sym_ignore            true
incdft                false
incfock               0
scf_convergence       8
thresh                14
jobtype               opt
scf_guess             read
scf_algorithm         diis
max_scf_cycles        100
geom_opt_tol_gradient 600
geom_opt_tol_displacement 2400
geom_opt_tol_energy   200
geom_opt_max_cycles   100
$end

--------------------------------------------------------------

    2    -286.9243160407      9.12E-10 Convergence criterion met
 Total energy in the final basis set = -286.92431604
   13    -286.9243187257      3.66E-09 Convergence criterion met
 Total energy in the final basis set = -286.92431873

             Standard Nuclear Orientation (Angstroms)
    I     Atom           X                Y                Z
 ----------------------------------------------------------------
    1      C       1.3039066608     0.7964276235    -0.7232735101
    2      C       0.4949950914    -1.2758589948     0.5016240498
    3      C      -0.8221752022    -0.9830651754     0.6937381154
    4      C      -1.5121323796     0.2120647876     0.2811035853
    5      C      -0.9986196714     1.3072527568    -0.3890384885
    6      N       0.2337535418     1.6161686822    -0.8538715724
    7      H       2.2047447966     1.2285438683    -1.1645771162
    8      H       0.8539747171    -2.2313287137     0.8789059174
    9      H      -1.4269600282    -1.7242229691     1.2124249804
   10      H      -2.5705842058     0.2642358426     0.5246460769
   11      H      -1.7228937629     2.0985931619    -0.5947164024
   12      C       1.4775666999    -0.4510113213    -0.1549419361
   13      H       2.4844237427    -0.8577995487    -0.2120236994
 ----------------------------------------------------------------

   12    -286.9243191478      5.28E-09 Convergence criterion met
 Total energy in the final basis set = -286.92431915
 Final energy is   -286.924319147775
 **  OPTIMIZATION CONVERGED  **

                    Orbital Energies (a.u.)
 --------------------------------------------------------------

 Alpha MOs
 -- Occupied --
-14.322 -10.232 -10.232 -10.212 -10.211 -10.201 -10.200  -0.922
 -0.818  -0.784  -0.693  -0.667  -0.551  -0.537  -0.518  -0.449
 -0.439  -0.414  -0.394  -0.386  -0.349  -0.322  -0.299  -0.251
 -0.162

 Beta MOs
 -- Occupied --
-14.314 -10.233 -10.233 -10.210 -10.210 -10.196 -10.196  -0.911
 -0.809  -0.777  -0.681  -0.665  -0.546  -0.535  -0.514  -0.447
 -0.438  -0.411  -0.383  -0.373  -0.348  -0.295  -0.276  -0.241

          Ground-State Mulliken Net Atomic Charges

     Atom                 Charge (a.u.)    Spin (a.u.)
  --------------------------------------------------------
      1 C                     0.035218      -0.110614
      2 C                    -0.111737       0.098045
      3 C                    -0.110820       0.089464
      4 C                    -0.131976       0.350334
      5 C                     0.036032      -0.114605
      6 N                    -0.423395       0.386883
      7 H                     0.142633       0.003304
      8 H                     0.141927      -0.006843
      9 H                     0.141976      -0.006432
     10 H                     0.134320      -0.018489
     11 H                     0.142590       0.003500
     12 C                    -0.131187       0.343631
     13 H                     0.134419      -0.018178
  --------------------------------------------------------
  Sum of atomic charges =    -0.000000

                    Cartesian Multipole Moments
 -----------------------------------------------------------------
    Charge (ESU x 10^10)
                -0.0000
    Dipole Moment (Debye)
         X      -0.2856      Y      -1.9683      Z       1.0391
       Tot       2.2440
    Quadrupole Moments (Debye-Ang)
        XX     -34.8637     XY      -1.7712     YY     -42.1721
        XZ      -1.2929     YZ      -0.1345     ZZ     -42.9652

 Total job time:  98.20s(wall), 95.81s(cpu)
        *  Thank you very much for using Q-Chem.  Have a nice day.  *
