 Q-Chem 5.0, Q-Chem, Inc., Pleasanton, CA (2017)
 Q-Chem 5.0.2 for Intel X86 EM64T Linux

User input:
--------------------------------------------------------------
$molecule
0 2
C        1.5791252056    0.2926202887   -0.3212753300
C        0.6383214384   -0.8741601761   -0.0514834807
C       -0.6901991429   -0.3721876257   -0.7166529371
C       -1.0453332800    0.3114421959    0.6398804315
C       -0.4442860169    1.0906140833   -0.5665324209
N        0.9712589404    1.3958592422   -0.5616369474
H        2.6590888752    0.2502177049   -0.1968520835
H        1.0170265662   -1.8840325215   -0.2076048272
H       -1.3374552282   -0.8896715450   -1.4177306634
H       -2.0117308370    0.6039638343    1.0355374753
H       -1.1044523105    1.8203631371   -1.0220751935
C       -0.0253995665   -0.5228538164    1.2894775493
H       -0.2059646436   -1.2221748016    2.0969484280
$end

$rem
method                b3lyp
basis                 6-31+g(d,p)
unrestricted          true
symmetry              off
sym_ignore            true
incdft                false
incfock               0
scf_convergence       6
thresh                14
jobtype               sp
scf_guess             read
scf_algorithm         diis
max_scf_cycles        100
stability_analysis    true
max_cis_cycles        100
cis_n_roots           4
$end

--------------------------------------------------------------

             Standard Nuclear Orientation (Angstroms)
    I     Atom           X                Y                Z
 ----------------------------------------------------------------
    1      C       1.5791252056     0.2926202887    -0.3212753300
    2      C       0.6383214384    -0.8741601761    -0.0514834807
    3      C      -0.6901991429    -0.3721876257    -0.7166529371
    4      C      -1.0453332800     0.3114421959     0.6398804315
    5      C      -0.4442860169     1.0906140833    -0.5665324209
    6      N       0.9712589404     1.3958592422    -0.5616369474
    7      H       2.6590888752     0.2502177049    -0.1968520835
    8      H       1.0170265662    -1.8840325215    -0.2076048272
    9      H      -1.3374552282    -0.8896715450    -1.4177306634
   10      H      -2.0117308370     0.6039638343     1.0355374753
   11      H      -1.1044523105     1.8203631371    -1.0220751935
   12      C      -0.0253995665    -0.5228538164     1.2894775493
   13      H      -0.2059646436    -1.2221748016     2.0969484280
 ----------------------------------------------------------------

    2    -286.8569554559      7.57E-10 Convergence criterion met
 Total energy in the final basis set = -286.85695546

         TDDFT/TDA Excitation Energies
 ---------------------------------------------------

 Excited state   1: excitation energy (eV) =    3.1529
 Total energy for state  1:                  -286.74109013 au
    <S**2>     :  0.8590
    Trans. Mom.:  0.2313 X   0.1199 Y  -0.1712 Z
    Strength   :     0.0075088643
    S(  1) --> V(  1) amplitude =  0.9798 alpha

 Excited state   2: excitation energy (eV) =    3.9847
 Total energy for state  2:                  -286.71052110 au
    <S**2>     :  0.8116
    Trans. Mom.: -0.1060 X  -0.0899 Y  -0.1325 Z
    Strength   :     0.0035996774
    S(  1) --> V(  2) amplitude =  0.9801 alpha

 Excited state   3: excitation energy (eV) =    4.0749
 Total energy for state  3:                  -286.70720633 au
    <S**2>     :  1.7920
    Trans. Mom.:  0.0067 X   0.0660 Y  -0.0495 Z
    Strength   :     0.0006835174
    D( 24) --> V(  1) amplitude =  0.4265 alpha
    D( 23) --> S(  1) amplitude =  0.2403 beta
    D( 24) --> S(  1) amplitude = -0.7612 beta
    D( 24) --> V(  1) amplitude = -0.2884 beta

 Excited state   4: excitation energy (eV) =    4.4421
 Total energy for state  4:                  -286.69371179 au
    <S**2>     :  0.8311
    Trans. Mom.:  0.1572 X  -0.0797 Y   0.0753 Z
    Strength   :     0.0039973841
    S(  1) --> V(  3) amplitude =  0.9226 alpha
    S(  1) --> V(  4) amplitude = -0.3114 alpha

 ---------------------------------------------------

                    Orbital Energies (a.u.)
 --------------------------------------------------------------

 Alpha MOs
 -- Occupied --
-14.334 -10.233 -10.231 -10.223 -10.221 -10.220 -10.211  -0.980
 -0.867  -0.759  -0.674  -0.615  -0.583  -0.549  -0.518  -0.465
 -0.450  -0.420  -0.410  -0.369  -0.344  -0.317  -0.282  -0.270
 -0.180

 Beta MOs
 -- Occupied --
-14.334 -10.233 -10.231 -10.221 -10.220 -10.220 -10.199  -0.976
 -0.861  -0.753  -0.661  -0.611  -0.579  -0.544  -0.512  -0.458
 -0.446  -0.415  -0.406  -0.361  -0.340  -0.304  -0.275  -0.266

          Ground-State Mulliken Net Atomic Charges

     Atom                 Charge (a.u.)    Spin (a.u.)
  --------------------------------------------------------
      1 C                    -0.012471      -0.001370
      2 C                    -0.109819      -0.086831
      3 C                    -0.049450       0.166260
      4 C                    -0.107008      -0.101906
      5 C                    -0.253134       0.014910
      6 N                    -0.177447       0.027633
      7 H                     0.131932       0.001608
      8 H                     0.131451       0.008526
      9 H                     0.135161       0.007648
     10 H                     0.140026       0.000445
     11 H                     0.144869       0.003283
     12 C                    -0.110984       0.999990
     13 H                     0.136876      -0.040197
  --------------------------------------------------------
  Sum of atomic charges =    -0.000000

                    Cartesian Multipole Moments
 -----------------------------------------------------------------
    Charge (ESU x 10^10)
                -0.0000
    Dipole Moment (Debye)
         X      -1.5134      Y      -2.4881      Z      -0.0815
       Tot       2.9134
    Quadrupole Moments (Debye-Ang)
        XX     -38.3804     XY      -4.7475     YY     -44.3224
        XZ       0.6912     YZ       0.4684     ZZ     -42.5220

 Total job time:  246.21s(wall), 213.39s(cpu)
        *  Thank you very much for using Q-Chem.  Have a nice day.  *
