 Q-Chem 5.0, Q-Chem, Inc., Pleasanton, CA (2017)
 Q-Chem 5.0.2 for Intel X86 EM64T Linux

User input:
--------------------------------------------------------------
$molecule
0 2
C        1.5897937615    0.3683722827   -0.3283858501
C        0.7814750451   -0.8585019123   -0.0679401832
C       -0.5686651735   -0.5784945367   -0.6452099477
C       -0.8298553969    0.7491988158    0.9851584379
C       -0.5261538031    0.9907554398   -0.4998359593
N        0.8925294941    1.4046700634   -0.6172885341
H        2.6751121435    0.4117311705   -0.2550868103
H        1.2082632314   -1.8560379390   -0.0948695380
H       -1.1440276044   -1.1971761697   -1.3265528657
H       -1.7252779827    1.0964010865    1.4882723361
H       -1.1952276977    1.6241695573   -1.0797497621
C       -0.4433117587   -0.6710972149    0.8884329758
H       -0.7146542587   -1.4839906434    1.5530557009
$end

$rem
method                b3lyp
basis                 6-31+g(d,p)
unrestricted          true
symmetry              off
sym_ignore            true
incdft                false
incfock               0
scf_convergence       8
thresh                14
jobtype               sp
scf_guess             read
scf_algorithm         diis
max_scf_cycles        100
scf_final_print       1
$end

--------------------------------------------------------------

             Standard Nuclear Orientation (Angstroms)
    I     Atom           X                Y                Z
 ----------------------------------------------------------------
    1      C       1.5897937615     0.3683722827    -0.3283858501
    2      C       0.7814750451    -0.8585019123    -0.0679401832
    3      C      -0.5686651735    -0.5784945367    -0.6452099477
    4      C      -0.8298553969     0.7491988158     0.9851584379
    5      C      -0.5261538031     0.9907554398    -0.4998359593
    6      N       0.8925294941     1.4046700634    -0.6172885341
    7      H       2.6751121435     0.4117311705    -0.2550868103
    8      H       1.2082632314    -1.8560379390    -0.0948695380
    9      H      -1.1440276044    -1.1971761697    -1.3265528657
   10      H      -1.7252779827     1.0964010865     1.4882723361
   11      H      -1.1952276977     1.6241695573    -1.0797497621
   12      C      -0.4433117587    -0.6710972149     0.8884329758
   13      H      -0.7146542587    -1.4839906434     1.5530557009
 ----------------------------------------------------------------

    2    -286.8575439081      1.79E-09 Convergence criterion met
 Total energy in the final basis set = -286.85754391

                    Orbital Energies (a.u.)
 --------------------------------------------------------------

 Alpha MOs
 -- Occupied --
-14.332 -10.231 -10.231 -10.226 -10.224 -10.222 -10.206  -0.976
 -0.870  -0.757  -0.667  -0.617  -0.584  -0.549  -0.519  -0.473
 -0.438  -0.422  -0.399  -0.375  -0.339  -0.326  -0.277  -0.268
 -0.184

 Beta MOs
 -- Occupied --
-14.332 -10.231 -10.231 -10.226 -10.222 -10.221 -10.193  -0.972
 -0.865  -0.748  -0.656  -0.612  -0.581  -0.547  -0.509  -0.470
 -0.434  -0.416  -0.396  -0.371  -0.327  -0.314  -0.274  -0.266

          Ground-State Mulliken Net Atomic Charges

     Atom                 Charge (a.u.)    Spin (a.u.)
  --------------------------------------------------------
      1 C                    -0.059197      -0.001739
      2 C                    -0.084381       0.004925
      3 C                    -0.101913       0.145473
      4 C                    -0.050152       1.024932
      5 C                    -0.152238      -0.103325
      6 N                    -0.194253       0.024003
      7 H                     0.132725       0.004208
      8 H                     0.138973       0.002203
      9 H                     0.135288       0.008637
     10 H                     0.135244      -0.038583
     11 H                     0.134309       0.005093
     12 C                    -0.175590      -0.075735
     13 H                     0.141186      -0.000091
  --------------------------------------------------------
  Sum of atomic charges =     0.000000

                    Cartesian Multipole Moments
 -----------------------------------------------------------------
    Charge (ESU x 10^10)
                 0.0000
    Dipole Moment (Debye)
         X      -1.1079      Y      -3.0113      Z       0.1105
       Tot       3.2105
    Quadrupole Moments (Debye-Ang)
        XX     -38.1548     XY      -3.8860     YY     -44.4175
        XZ       0.7378     YZ       0.4254     ZZ     -42.6208

 Total job time:  7.15s(wall), 12.01s(cpu)
        *  Thank you very much for using Q-Chem.  Have a nice day.  *
