 Q-Chem 5.0, Q-Chem, Inc., Pleasanton, CA (2017)
 Q-Chem 5.0.2 for Intel X86 EM64T Linux

User input:
--------------------------------------------------------------
$molecule
0 2
C        1.5486951731    0.2442336635   -0.2494075832
C        0.5832877847   -0.9254885455   -0.0949144588
C       -0.7096484807   -0.3596107883   -0.7855341012
C       -1.1193955337    0.1992909432    0.5904615686
C       -0.4422521773    1.0835525612   -0.5517996318
N        0.9671171309    1.3696570034   -0.4538244963
H        2.6208252181    0.1780447767   -0.0708608150
H        0.9605783932   -1.9279423739   -0.3083543462
H       -1.3195292186   -0.8226233496   -1.5554190234
H       -2.0921367155    0.5063234239    0.9619766907
H       -1.0832887086    1.8560368313   -0.9641885398
C       -0.1340248975   -0.6634536071    1.2281084250
H        0.2197720324   -0.7380205390    2.2537563110
****
C        1.5862167321    0.3752484457   -0.3110432178
C        0.7817497375   -0.8579963142   -0.0686461741
C       -0.5626767796   -0.5793514462   -0.6572232044
C       -0.8331545171    0.7408410072    0.9835204086
C       -0.5267377577    0.9886603279   -0.4988024863
N        0.8919135618    1.4118661882   -0.5987913352
H        2.6709340366    0.4221547241   -0.2209525076
H        1.2124765558   -1.8542205295   -0.0970044697
H       -1.1233934872   -1.1933047692   -1.3562425719
H       -1.7077709260    1.1078635516    1.5084557950
H       -1.1949331404    1.6218615707   -1.0820825965
C       -0.4590759748   -0.6817606617    0.8721791246
H       -0.7355480409   -1.5018620945    1.5266332353
$end

$rem
method                b3lyp
basis                 6-31g(d)
unrestricted          true
symmetry              off
sym_ignore            true
incdft                false
incfock               0
scf_convergence       8
thresh                14
jobtype               fsm
scf_guess             core
scf_guess_mix         5
scf_algorithm         diis
max_scf_cycles        100
fsm_nnode             21
fsm_ngrad             6
fsm_mode              2
fsm_opt_mode          2
$end

--------------------------------------------------------------

   21    -286.8383138856      5.71E-09 Convergence criterion met
 Total energy in the final basis set = -286.83831389
   20    -286.8364859547      9.88E-09 Convergence criterion met
 Total energy in the final basis set = -286.83648595
   20    -286.8375345372      4.69E-09 Convergence criterion met
 Total energy in the final basis set = -286.83753454
   21    -286.8366203262      3.32E-09 Convergence criterion met
 Total energy in the final basis set = -286.83662033
   20    -286.8377663460      5.69E-09 Convergence criterion met
 Total energy in the final basis set = -286.83776635
   22    -286.8356598918      8.33E-09 Convergence criterion met
 Total energy in the final basis set = -286.83565989
   21    -286.8350043618      3.15E-09 Convergence criterion met
 Total energy in the final basis set = -286.83500436
   22    -286.8353602247      6.05E-09 Convergence criterion met
 Total energy in the final basis set = -286.78440380
   27    -286.7853929970      6.45E-09 Convergence criterion met
 Total energy in the final basis set = -286.78539300
   26    -286.7844017818      8.03E-09 Convergence criterion met
 Total energy in the final basis set = -286.78440178
   27    -286.7854418055      8.60E-09 Convergence criterion met
 Total energy in the final basis set = -286.78544181
   26    -286.7843841359      7.88E-09 Convergence criterion met
 Total energy in the final basis set = -286.78438414
   28    -286.7855072404      9.98E-09 Convergence criterion met
 Total energy in the final basis set = -286.78550724
   26    -286.7843352633      8.26E-09 Convergence criterion met
 Total energy in the final basis set = -286.78433526
   28    -286.7855978221      9.40E-09 Convergence criterion met
 Total energy in the final basis set = -286.78559782

                    Orbital Energies (a.u.)
 --------------------------------------------------------------

 Alpha MOs
 -- Occupied --
-14.317 -10.248 -10.232 -10.220 -10.211 -10.211 -10.189  -0.964
 -0.845  -0.748  -0.670  -0.597  -0.584  -0.540  -0.512  -0.459
 -0.430  -0.417  -0.403  -0.370  -0.342  -0.294  -0.275  -0.263
 -0.099

 Beta MOs
 -- Occupied --
-14.316 -10.248 -10.232 -10.220 -10.211 -10.206 -10.178  -0.961
 -0.839  -0.744  -0.658  -0.590  -0.582  -0.536  -0.501  -0.453
 -0.426  -0.414  -0.400  -0.365  -0.336  -0.282  -0.261  -0.255

          Ground-State Mulliken Net Atomic Charges

     Atom                 Charge (a.u.)    Spin (a.u.)
  --------------------------------------------------------
      1 C                     0.098278       0.013861
      2 C                    -0.193268      -0.023852
      3 C                    -0.101965      -0.051701
      4 C                    -0.121115       0.308384
      5 C                    -0.043469      -0.010478
      6 N                    -0.339623       0.032413
      7 H                     0.145600       0.006038
      8 H                     0.142404       0.006241
      9 H                     0.176254      -0.002268
     10 H                     0.148689      -0.001202
     11 H                     0.152744       0.001020
     12 C                    -0.200559       0.757564
     13 H                     0.136030      -0.036019
  --------------------------------------------------------
  Sum of atomic charges =    -0.000000

                    Cartesian Multipole Moments
 -----------------------------------------------------------------
    Charge (ESU x 10^10)
                -0.0000
    Dipole Moment (Debye)
         X      -1.2961      Y      -2.4110      Z      -0.7348
       Tot       2.8342
    Quadrupole Moments (Debye-Ang)
        XX     -37.3411     XY      -3.9322     YY     -43.5424
        XZ       1.4903     YZ       0.9536     ZZ     -41.0139

             Standard Nuclear Orientation (Angstroms)
    I     Atom           X                Y                Z
 ----------------------------------------------------------------
    1      C       1.5817774021     0.3120151961    -0.3122421681
    2      C       0.6705574181    -0.8850034414    -0.0964459145
    3      C      -0.6147839286    -0.4163785966    -0.7283474707
    4      C      -0.9774092738     0.5682604273     0.8128780744
    5      C      -0.4744878904     1.0504386071    -0.5483289568
    6      N       0.9553169006     1.4060716891    -0.5409374500
    7      H       2.6589303224     0.2868294437    -0.1546823471
    8      H       1.0419166784    -1.8939299535    -0.2578800626
    9      H      -1.3057425376    -0.9745698267    -1.3508585737
   10      H      -2.0288149060     0.6845983511     1.0737343376
   11      H      -1.1174727517     1.7522927453    -1.0719248652
   12      C      -0.1715907581    -0.6477523447     1.1360505493
   13      H      -0.2339304782    -1.2594164913     2.0335375031
 ----------------------------------------------------------------

 Total job time:  3455.72s(wall), 4936.30s(cpu)
        *  Thank you very much for using Q-Chem.  Have a nice day.  *
