 Q-Chem 5.0, Q-Chem, Inc., Pleasanton, CA (2017)
 Q-Chem 5.0.2 for Intel X86 EM64T Linux

User input:
--------------------------------------------------------------
$molecule
0 2
C        1.6322517459    0.3543648530   -0.3465257814
C        0.7808889647   -0.8318538957   -0.0283560322
C       -0.5700725752   -0.4158196605   -0.5324487334
C       -0.9438878130    0.6336396690    0.8425088615
C       -0.4366501473    1.0799369772   -0.5346192062
N        0.9686914328    1.4212284455   -0.6351252429
H        2.7196774137    0.3464596221   -0.3307138120
H        1.1529188411   -1.8428947204   -0.1586494908
H       -1.3478985809   -1.0351368499   -0.9585139253
H       -2.0112012016    0.6967558815    1.0376505037
H       -1.1170421309    1.7012313199   -1.1065941909
C       -0.1680845904   -0.6218672378    1.1774890920
H       -0.6753251617   -1.5025885983    1.5684506138
$end

$rem
method                b3lyp
basis                 6-31+g(d,p)
unrestricted          true
symmetry              off
sym_ignore            true
incdft                false
incfock               0
scf_convergence       8
thresh                14
jobtype               rpath
scf_guess             core
scf_guess_mix         5
scf_algorithm         diis
max_scf_cycles        100
rpath_direction       1
rpath_tol_displacement 1000
rpath_max_cycles      50
geom_opt_max_cycles   300
geom_opt_hessian      read
$end

--------------------------------------------------------------

   22    -286.8210745741      7.28E-09 Convergence criterion met
 Total energy in the final basis set = -286.82107457
   21    -286.8235764515      9.94E-09 Convergence criterion met
 Total energy in the final basis set = -286.82357645
   21    -286.8235400142      9.10E-09 Convergence criterion met
 Total energy in the final basis set = -286.82354001
   21    -286.8235950420      9.60E-09 Convergence criterion met
 Total energy in the final basis set = -286.82359504
   22    -286.8294707227      7.71E-09 Convergence criterion met
 Total energy in the final basis set = -286.82947072
   22    -286.8294109180      6.51E-09 Convergence criterion met
 Total energy in the final basis set = -286.82941092
   22    -286.8295014508      7.27E-09 Convergence criterion met
 Total energy in the final basis set = -286.82950145
   22    -286.8356863330      6.09E-09 Convergence criterion met
 Total energy in the final basis set = -286.85639862
   22    -286.8575410299      5.56E-09 Convergence criterion met
 Total energy in the final basis set = -286.85754103
   22    -286.8575379133      5.88E-09 Convergence criterion met
 Total energy in the final basis set = -286.85753791
   22    -286.8575437506      5.68E-09 Convergence criterion met
 Total energy in the final basis set = -286.85754375
   22    -286.8555503262      6.58E-09 Convergence criterion met
 Total energy in the final basis set = -286.85555033
   22    -286.8575467872      5.76E-09 Convergence criterion met
 Total energy in the final basis set = -286.85754679
   22    -286.8575459661      5.66E-09 Convergence criterion met
 Total energy in the final basis set = -286.85754597
   22    -286.8575479320      5.72E-09 Convergence criterion met
 Total energy in the final basis set = -286.85754793

                    Orbital Energies (a.u.)
 --------------------------------------------------------------

 Alpha MOs
 -- Occupied --
-14.332 -10.231 -10.230 -10.226 -10.224 -10.222 -10.206  -0.976
 -0.870  -0.757  -0.667  -0.617  -0.584  -0.549  -0.519  -0.473
 -0.438  -0.422  -0.399  -0.375  -0.339  -0.326  -0.277  -0.268
 -0.184

 Beta MOs
 -- Occupied --
-14.332 -10.231 -10.231 -10.226 -10.222 -10.221 -10.193  -0.972
 -0.865  -0.748  -0.656  -0.612  -0.581  -0.547  -0.509  -0.470
 -0.434  -0.416  -0.396  -0.371  -0.327  -0.314  -0.274  -0.266

          Ground-State Mulliken Net Atomic Charges

     Atom                 Charge (a.u.)    Spin (a.u.)
  --------------------------------------------------------
      1 C                    -0.059186      -0.001634
      2 C                    -0.084578       0.005162
      3 C                    -0.101731       0.145437
      4 C                    -0.050133       1.025266
      5 C                    -0.151922      -0.103651
      6 N                    -0.194319       0.024041
      7 H                     0.132706       0.004207
      8 H                     0.138971       0.002204
      9 H                     0.135306       0.008639
     10 H                     0.135250      -0.038658
     11 H                     0.134298       0.005133
     12 C                    -0.175821      -0.076065
     13 H                     0.141159      -0.000081
  --------------------------------------------------------
  Sum of atomic charges =    -0.000000

                    Cartesian Multipole Moments
 -----------------------------------------------------------------
    Charge (ESU x 10^10)
                -0.0000
    Dipole Moment (Debye)
         X      -1.0876      Y      -3.0160      Z       0.1353
       Tot       3.2089
    Quadrupole Moments (Debye-Ang)
        XX     -38.1135     XY      -3.8331     YY     -44.4506
        XZ       0.8018     YZ       0.4277     ZZ     -42.6144

             Standard Nuclear Orientation (Angstroms)
    I     Atom           X                Y                Z
 ----------------------------------------------------------------
    1      C       1.6322517459     0.3543648530    -0.3465257814
    2      C       0.7808889647    -0.8318538957    -0.0283560322
    3      C      -0.5700725752    -0.4158196605    -0.5324487334
    4      C      -0.9438878130     0.6336396690     0.8425088615
    5      C      -0.4366501473     1.0799369772    -0.5346192062
    6      N       0.9686914328     1.4212284455    -0.6351252429
    7      H       2.7196774137     0.3464596221    -0.3307138120
    8      H       1.1529188411    -1.8428947204    -0.1586494908
    9      H      -1.3478985809    -1.0351368499    -0.9585139253
   10      H      -2.0112012016     0.6967558815     1.0376505037
   11      H      -1.1170421309     1.7012313199    -1.1065941909
   12      C      -0.1680845904    -0.6218672378     1.1774890920
   13      H      -0.6753251617    -1.5025885983     1.5684506138
 ----------------------------------------------------------------

 Total job time:  14564.32s(wall), 39511.00s(cpu)
        *  Thank you very much for using Q-Chem.  Have a nice day.  *
