 Q-Chem 5.0, Q-Chem, Inc., Pleasanton, CA (2017)
 Q-Chem 5.0.2 for Intel X86 EM64T Linux

User input:
--------------------------------------------------------------
$molecule
0 2
C        1.5482631015    0.2439600781   -0.2499162964
C        0.5831613954   -0.9257548257   -0.0945058348
C       -0.7090733236   -0.3596409117   -0.7859874656
C       -1.1198146451    0.1988849191    0.5900884062
C       -0.4422720388    1.0837288812   -0.5510927869
N        0.9666768840    1.3699051016   -0.4517862960
H        2.6206041138    0.1766951608   -0.0731473905
H        0.9604500354   -1.9282857562   -0.3077102016
H       -1.3183502057   -0.8222857861   -1.5565333331
H       -2.0927552132    0.5054232907    0.9613640526
H       -1.0832845491    1.8562957945   -0.9634132650
C       -0.1337518241   -0.6625006690    1.2284612501
H        0.2201462699   -0.7364252773    2.2541791605
$end

$rem
method                b3lyp
basis                 6-31g(d)
unrestricted          true
symmetry              off
sym_ignore            true
incdft                false
incfock               0
scf_convergence       8
thresh                14
jobtype               opt
scf_guess             core
scf_guess_mix         5
scf_algorithm         diis
max_scf_cycles        100
geom_opt_max_cycles   300
$end

--------------------------------------------------------------

   21    -286.8383134969      5.75E-09 Convergence criterion met
 Total energy in the final basis set = -286.83831350

             Standard Nuclear Orientation (Angstroms)
    I     Atom           X                Y                Z
 ----------------------------------------------------------------
    1      C       1.5486951731     0.2442336635    -0.2494075832
    2      C       0.5832877847    -0.9254885455    -0.0949144588
    3      C      -0.7096484807    -0.3596107883    -0.7855341012
    4      C      -1.1193955337     0.1992909432     0.5904615686
    5      C      -0.4422521773     1.0835525612    -0.5517996318
    6      N       0.9671171309     1.3696570034    -0.4538244963
    7      H       2.6208252181     0.1780447767    -0.0708608150
    8      H       0.9605783932    -1.9279423739    -0.3083543462
    9      H      -1.3195292186    -0.8226233496    -1.5554190234
   10      H      -2.0921367155     0.5063234239     0.9619766907
   11      H      -1.0832887086     1.8560368313    -0.9641885398
   12      C      -0.1340248975    -0.6634536071     1.2281084250
   13      H       0.2197720324    -0.7380205390     2.2537563110
 ----------------------------------------------------------------

   16    -286.8383138856      9.16E-09 Convergence criterion met
 Total energy in the final basis set = -286.83831389
 Final energy is   -286.838313885603
 **  OPTIMIZATION CONVERGED  **

                    Orbital Energies (a.u.)
 --------------------------------------------------------------

 Alpha MOs
 -- Occupied --
-14.320 -10.224 -10.220 -10.210 -10.209 -10.208 -10.206  -0.968
 -0.856  -0.749  -0.664  -0.606  -0.571  -0.535  -0.517  -0.466
 -0.439  -0.405  -0.400  -0.356  -0.337  -0.298  -0.274  -0.256
 -0.182

 Beta MOs
 -- Occupied --
-14.319 -10.222 -10.219 -10.211 -10.209 -10.207 -10.193  -0.964
 -0.850  -0.741  -0.652  -0.601  -0.567  -0.528  -0.511  -0.461
 -0.434  -0.402  -0.394  -0.348  -0.332  -0.291  -0.262  -0.251

          Ground-State Mulliken Net Atomic Charges

     Atom                 Charge (a.u.)    Spin (a.u.)
  --------------------------------------------------------
      1 C                     0.088679       0.046532
      2 C                    -0.258586      -0.065661
      3 C                    -0.108001       0.078137
      4 C                    -0.163334      -0.095694
      5 C                    -0.019139       0.096314
      6 N                    -0.342092       0.039631
      7 H                     0.143042       0.001400
      8 H                     0.142887       0.022631
      9 H                     0.148132      -0.000816
     10 H                     0.147237       0.005296
     11 H                     0.151384       0.002887
     12 C                    -0.066443       0.888638
     13 H                     0.136234      -0.019295
  --------------------------------------------------------
  Sum of atomic charges =    -0.000000

                    Cartesian Multipole Moments
 -----------------------------------------------------------------
    Charge (ESU x 10^10)
                -0.0000
    Dipole Moment (Debye)
         X      -0.9587      Y      -1.8079      Z       0.1099
       Tot       2.0493
    Quadrupole Moments (Debye-Ang)
        XX     -37.7191     XY      -4.6408     YY     -43.8150
        XZ       1.7594     YZ       1.0444     ZZ     -39.7858

 Total job time:  99.26s(wall), 116.05s(cpu)
        *  Thank you very much for using Q-Chem.  Have a nice day.  *
