 Q-Chem 5.0, Q-Chem, Inc., Pleasanton, CA (2017)
 Q-Chem 5.0.2 for Intel X86 EM64T Linux

User input:
--------------------------------------------------------------
$molecule
0 2
C        1.5870793774    0.3753843937   -0.3119053564
C        0.7820645318   -0.8578262721   -0.0688868138
C       -0.5627703348   -0.5794053137   -0.6571102005
C       -0.8325735059    0.7413699577    0.9848007507
C       -0.5271771098    0.9883395933   -0.4982636290
N        0.8917918590    1.4118715522   -0.5988534640
H        2.6718673927    0.4219606112   -0.2217395189
H        1.2115170854   -1.8547515029   -0.0957786751
H       -1.1230205578   -1.1920600677   -1.3575009313
H       -1.7091975256    1.1071311352    1.5074004879
H       -1.1954027774    1.6214851215   -1.0817205603
C       -0.4584914177   -0.6818767224    0.8724562960
H       -0.7356870172   -1.5016224859    1.5271016146
$end

$rem
method                b3lyp
basis                 6-31g(d)
unrestricted          true
symmetry              off
sym_ignore            true
incdft                false
incfock               0
scf_convergence       8
thresh                14
jobtype               opt
scf_guess             core
scf_guess_mix         5
scf_algorithm         diis
max_scf_cycles        100
geom_opt_max_cycles   300
$end

--------------------------------------------------------------

   20    -286.8364833600      9.33E-09 Convergence criterion met
 Total energy in the final basis set = -286.83648336
   16    -286.8364852625      4.66E-09 Convergence criterion met
 Total energy in the final basis set = -286.83648526

             Standard Nuclear Orientation (Angstroms)
    I     Atom           X                Y                Z
 ----------------------------------------------------------------
    1      C       1.5862167321     0.3752484457    -0.3110432178
    2      C       0.7817497375    -0.8579963142    -0.0686461741
    3      C      -0.5626767796    -0.5793514462    -0.6572232044
    4      C      -0.8331545171     0.7408410072     0.9835204086
    5      C      -0.5267377577     0.9886603279    -0.4988024863
    6      N       0.8919135618     1.4118661882    -0.5987913352
    7      H       2.6709340366     0.4221547241    -0.2209525076
    8      H       1.2124765558    -1.8542205295    -0.0970044697
    9      H      -1.1233934872    -1.1933047692    -1.3562425719
   10      H      -1.7077709260     1.1078635516     1.5084557950
   11      H      -1.1949331404     1.6218615707    -1.0820825965
   12      C      -0.4590759748    -0.6817606617     0.8721791246
   13      H      -0.7355480409    -1.5018620945     1.5266332353
 ----------------------------------------------------------------

   16    -286.8364859442      4.68E-09 Convergence criterion met
 Total energy in the final basis set = -286.83648594
 Final energy is   -286.836485944214
 **  OPTIMIZATION CONVERGED  **

                    Orbital Energies (a.u.)
 --------------------------------------------------------------

 Alpha MOs
 -- Occupied --
-14.317 -10.220 -10.220 -10.215 -10.212 -10.211 -10.194  -0.964
 -0.858  -0.746  -0.657  -0.608  -0.574  -0.540  -0.512  -0.463
 -0.429  -0.412  -0.388  -0.366  -0.329  -0.315  -0.266  -0.256
 -0.174

 Beta MOs
 -- Occupied --
-14.317 -10.221 -10.220 -10.216 -10.211 -10.210 -10.181  -0.961
 -0.854  -0.737  -0.646  -0.602  -0.571  -0.538  -0.501  -0.461
 -0.425  -0.406  -0.384  -0.362  -0.317  -0.303  -0.263  -0.254

          Ground-State Mulliken Net Atomic Charges

     Atom                 Charge (a.u.)    Spin (a.u.)
  --------------------------------------------------------
      1 C                     0.096605       0.006745
      2 C                    -0.192665       0.036933
      3 C                    -0.106784       0.107736
      4 C                    -0.071194       0.952344
      5 C                    -0.099759      -0.043514
      6 N                    -0.337274       0.012658
      7 H                     0.143764       0.003963
      8 H                     0.148713       0.001441
      9 H                     0.149512       0.008540
     10 H                     0.139485      -0.039533
     11 H                     0.141875       0.005465
     12 C                    -0.161854      -0.053163
     13 H                     0.149576       0.000384
  --------------------------------------------------------
  Sum of atomic charges =    -0.000000

                    Cartesian Multipole Moments
 -----------------------------------------------------------------
    Charge (ESU x 10^10)
                -0.0000
    Dipole Moment (Debye)
         X      -0.9857      Y      -2.6533      Z       0.1431
       Tot       2.8341
    Quadrupole Moments (Debye-Ang)
        XX     -37.4468     XY      -3.3557     YY     -42.7371
        XZ       0.6088     YZ       0.5966     ZZ     -41.0810

 Total job time:  154.29s(wall), 164.32s(cpu)
        *  Thank you very much for using Q-Chem.  Have a nice day.  *
