 Q-Chem 5.0, Q-Chem, Inc., Pleasanton, CA (2017)
 Q-Chem 5.0.2 for Intel X86 EM64T Linux

User input:
--------------------------------------------------------------
$molecule
0 2
C        1.6322517459    0.3543648530   -0.3465257814
C        0.7808889647   -0.8318538957   -0.0283560322
C       -0.5700725752   -0.4158196605   -0.5324487334
C       -0.9438878130    0.6336396690    0.8425088615
C       -0.4366501473    1.0799369772   -0.5346192062
N        0.9686914328    1.4212284455   -0.6351252429
H        2.7196774137    0.3464596221   -0.3307138120
H        1.1529188411   -1.8428947204   -0.1586494908
H       -1.3478985809   -1.0351368499   -0.9585139253
H       -2.0112012016    0.6967558815    1.0376505037
H       -1.1170421309    1.7012313199   -1.1065941909
C       -0.1680845904   -0.6218672378    1.1774890920
H       -0.6753251617   -1.5025885983    1.5684506138
$end

$rem
method                b3lyp
basis                 6-31+g(d,p)
unrestricted          true
symmetry              off
sym_ignore            true
incdft                false
incfock               0
scf_convergence       8
thresh                14
jobtype               freq
scf_guess             read
scf_algorithm         diis
max_scf_cycles        100
$end

--------------------------------------------------------------

             Standard Nuclear Orientation (Angstroms)
    I     Atom           X                Y                Z
 ----------------------------------------------------------------
    1      C       1.6322517459     0.3543648530    -0.3465257814
    2      C       0.7808889647    -0.8318538957    -0.0283560322
    3      C      -0.5700725752    -0.4158196605    -0.5324487334
    4      C      -0.9438878130     0.6336396690     0.8425088615
    5      C      -0.4366501473     1.0799369772    -0.5346192062
    6      N       0.9686914328     1.4212284455    -0.6351252429
    7      H       2.7196774137     0.3464596221    -0.3307138120
    8      H       1.1529188411    -1.8428947204    -0.1586494908
    9      H      -1.3478985809    -1.0351368499    -0.9585139253
   10      H      -2.0112012016     0.6967558815     1.0376505037
   11      H      -1.1170421309     1.7012313199    -1.1065941909
   12      C      -0.1680845904    -0.6218672378     1.1774890920
   13      H      -0.6753251617    -1.5025885983     1.5684506138
 ----------------------------------------------------------------

    2    -286.8210745742      2.97E-10 Convergence criterion met
 Total energy in the final basis set = -286.82107457

                    Orbital Energies (a.u.)
 --------------------------------------------------------------

 Alpha MOs
 -- Occupied --
-14.335 -10.264 -10.241 -10.232 -10.230 -10.223 -10.219  -0.989
 -0.877  -0.772  -0.672  -0.625  -0.603  -0.560  -0.516  -0.467
 -0.444  -0.433  -0.416  -0.388  -0.351  -0.332  -0.290  -0.276
 -0.122

 Beta MOs
 -- Occupied --
-14.334 -10.265 -10.241 -10.231 -10.230 -10.215 -10.212  -0.986
 -0.874  -0.767  -0.663  -0.618  -0.603  -0.557  -0.506  -0.463
 -0.440  -0.431  -0.412  -0.382  -0.342  -0.306  -0.281  -0.272

          Ground-State Mulliken Net Atomic Charges

     Atom                 Charge (a.u.)    Spin (a.u.)
  --------------------------------------------------------
      1 C                     0.063404       0.061110
      2 C                    -0.237752      -0.040481
      3 C                     0.210786      -0.026425
      4 C                    -0.115159       0.501514
      5 C                    -0.397585      -0.025975
      6 N                    -0.176758       0.027188
      7 H                     0.133779       0.001165
      8 H                     0.141480      -0.003251
      9 H                     0.169192       0.000735
     10 H                     0.153205      -0.013042
     11 H                     0.145237      -0.003358
     12 C                    -0.241895       0.524600
     13 H                     0.152066      -0.003780
  --------------------------------------------------------
  Sum of atomic charges =     0.000000

                    Cartesian Multipole Moments
 -----------------------------------------------------------------
    Charge (ESU x 10^10)
                 0.0000
    Dipole Moment (Debye)
         X      -1.7072      Y      -3.1953      Z      -0.9432
       Tot       3.7436
    Quadrupole Moments (Debye-Ang)
        XX     -37.4589     XY      -3.3215     YY     -44.7302
        XZ       1.1479     YZ       0.5157     ZZ     -45.5208

 Frequency:      -754.25                 311.90                 375.60
 Force Cnst:      3.0930                 0.2736                 0.2661
 Red. Mass:       9.2277                 4.7737                 3.2008
 IR Intens:      120.017                 52.861                  6.078
 Frequency:       523.01                 608.37                 731.79
 Force Cnst:      0.7003                 0.4556                 0.5538
 Red. Mass:       4.3451                 2.0894                 1.7551
 IR Intens:       15.172                 20.935                 51.194
 Frequency:       748.91                 796.70                 825.87
 Force Cnst:      1.3392                 0.8191                 1.1564
 Red. Mass:       4.0525                 2.1903                 2.8777
 IR Intens:        6.190                 17.652                 20.614
 Frequency:       840.45                 880.88                 899.98
 Force Cnst:      0.6385                 1.4588                 0.7172
 Red. Mass:       1.5343                 3.1909                 1.5030
 IR Intens:        1.882                  9.225                 21.555
 Frequency:       941.20                 948.57                 958.51
 Force Cnst:      0.9060                 1.5316                 0.9208
 Red. Mass:       1.7358                 2.8891                 1.7011
 IR Intens:        1.940                 20.083                  9.308
 Frequency:      1006.90                1027.85                1051.30
 Force Cnst:      0.9499                 1.2220                 1.2019
 Red. Mass:       1.5902                 1.9632                 1.8457
 IR Intens:        4.210                  0.818                  7.442
 Frequency:      1095.12                1109.04                1211.89
 Force Cnst:      0.9708                 1.3448                 1.2409
 Red. Mass:       1.3739                 1.8557                 1.4340
 IR Intens:        1.089                  1.328                  0.228
 Frequency:      1254.25                1281.55                1313.24
 Force Cnst:      1.7980                 1.3479                 1.7065
 Red. Mass:       1.9399                 1.3929                 1.6795
 IR Intens:       17.019                  1.937                 10.650
 Frequency:      1332.34                1354.58                1615.54
 Force Cnst:      1.6275                 1.9106                10.2072
 Red. Mass:       1.5561                 1.7673                 6.6378
 IR Intens:       10.342                 17.399                 62.011
 Frequency:      3136.39                3176.52                3183.20
 Force Cnst:      6.3081                 6.4810                 6.5173
 Red. Mass:       1.0884                 1.0902                 1.0917
 IR Intens:       18.177                  9.690                  9.410
 Frequency:      3201.11                3207.91                3250.67
 Force Cnst:      6.5958                 6.6196                 6.8284
 Red. Mass:       1.0925                 1.0918                 1.0968
 IR Intens:       13.845                  7.179                  0.417

 STANDARD THERMODYNAMIC QUANTITIES AT   298.15 K  AND     1.00 ATM

   This Molecule has  1 Imaginary Frequencies
   Zero point vibrational energy:       63.189 kcal/mol

   Atom    1 Element C  Has Mass   12.00000
   Atom    2 Element C  Has Mass   12.00000
   Atom    3 Element C  Has Mass   12.00000
   Atom    4 Element C  Has Mass   12.00000
   Atom    5 Element C  Has Mass   12.00000
   Atom    6 Element N  Has Mass   14.00307
   Atom    7 Element H  Has Mass    1.00783
   Atom    8 Element H  Has Mass    1.00783
   Atom    9 Element H  Has Mass    1.00783
   Atom   10 Element H  Has Mass    1.00783
   Atom   11 Element H  Has Mass    1.00783
   Atom   12 Element C  Has Mass   12.00000
   Atom   13 Element H  Has Mass    1.00783
   Molecular Mass:    92.050050 amu
   Principal axes and moments of inertia in amu*Bohr^2:
                             1           2           3
    Eigenvalues --      347.07097   451.21165   612.72896
          X               0.75005    -0.58575     0.30710
          Y               0.44858     0.79177     0.41457
          Z              -0.48599    -0.17319     0.85663
   Rotational Symmetry Number is   1
   The Molecule is an Asymmetric Top
   Translational Enthalpy:        0.889 kcal/mol
   Rotational Enthalpy:           0.889 kcal/mol
   Vibrational Enthalpy:         64.434 kcal/mol
   gas constant (RT):             0.592 kcal/mol
   Translational Entropy:        39.471  cal/mol.K
   Rotational Entropy:           26.064  cal/mol.K
   Vibrational Entropy:           5.734  cal/mol.K

   Total Enthalpy:               66.804 kcal/mol
   Total Entropy:                71.270  cal/mol.K

 Total job time:  605.01s(wall), 556.46s(cpu)
        *  Thank you very much for using Q-Chem.  Have a nice day.  *
