 Q-Chem 5.0, Q-Chem, Inc., Pleasanton, CA (2017)
 Q-Chem 5.0.2 for Intel X86 EM64T Linux

User input:
--------------------------------------------------------------
$molecule
0 2
C        1.5817774021    0.3120151961   -0.3122421681
C        0.6705574181   -0.8850034414   -0.0964459145
C       -0.6147839286   -0.4163785966   -0.7283474707
C       -0.9774092738    0.5682604273    0.8128780744
C       -0.4744878904    1.0504386071   -0.5483289568
N        0.9553169006    1.4060716891   -0.5409374500
H        2.6589303224    0.2868294437   -0.1546823471
H        1.0419166784   -1.8939299535   -0.2578800626
H       -1.3057425376   -0.9745698267   -1.3508585737
H       -2.0288149060    0.6845983511    1.0737343376
H       -1.1174727517    1.7522927453   -1.0719248652
C       -0.1715907581   -0.6477523447    1.1360505493
H       -0.2339304782   -1.2594164913    2.0335375031
$end

$rem
method                b3lyp
basis                 6-31g(d)
unrestricted          true
symmetry              off
sym_ignore            true
incdft                false
incfock               0
scf_convergence       8
thresh                14
jobtype               ts
scf_guess             read
scf_algorithm         diis
max_scf_cycles        100
geom_opt_max_cycles   500
geom_opt_dmax         100
geom_opt_tol_gradient 10
geom_opt_hessian      read
$end

--------------------------------------------------------------

    2    -286.7932560631      1.45E-09 Convergence criterion met
 Total energy in the final basis set = -286.79325606
   15    -286.7947484479      7.26E-09 Convergence criterion met
 Total energy in the final basis set = -286.79474845
   15    -286.7956642643      5.30E-09 Convergence criterion met
 Total energy in the final basis set = -286.79566426
   14    -286.7955197116      7.77E-09 Convergence criterion met
 Total energy in the final basis set = -286.79551971
   15    -286.7949650408      2.86E-09 Convergence criterion met
 Total energy in the final basis set = -286.79496504
   14    -286.7946241968      8.63E-09 Convergence criterion met
 Total energy in the final basis set = -286.79462420
   14    -286.7944504780      6.53E-09 Convergence criterion met
 Total energy in the final basis set = -286.79445048
   14    -286.7944205584      6.60E-09 Convergence criterion met
   11    -286.7989951655      7.55E-09 Convergence criterion met
 Total energy in the final basis set = -286.79899517
   13    -286.7989665605      4.67E-09 Convergence criterion met
 Total energy in the final basis set = -286.79896656
   13    -286.7989956081      4.67E-09 Convergence criterion met
 Total energy in the final basis set = -286.79899561
   10    -286.7989954944      7.33E-09 Convergence criterion met
 Total energy in the final basis set = -286.79899549
   10    -286.7989954239      8.45E-09 Convergence criterion met
 Total energy in the final basis set = -286.79899542
   10    -286.7989956379      5.94E-09 Convergence criterion met
 Total energy in the final basis set = -286.79899564

             Standard Nuclear Orientation (Angstroms)
    I     Atom           X                Y                Z
 ----------------------------------------------------------------
    1      C       1.6312646934     0.3549124158    -0.3493989471
    2      C       0.7827285273    -0.8304456405    -0.0248477941
    3      C      -0.5701089165    -0.4132064123    -0.5212560207
    4      C      -0.9423415701     0.6376479873     0.8471736690
    5      C      -0.4331628053     1.0818173686    -0.5316413158
    6      N       0.9706041050     1.4226436515    -0.6367576186
    7      H       2.7195451355     0.3449933508    -0.3394433329
    8      H       1.1533516932    -1.8422698364    -0.1571583227
    9      H      -1.3498423076    -1.0322953580    -0.9451260191
   10      H      -2.0147747634     0.6826046071     1.0219603956
   11      H      -1.1144471920     1.7011040738    -1.1064251121
   12      C      -0.1648001710    -0.6202789857     1.1834783366
   13      H      -0.6837502313    -1.5037714164     1.5539947377
 ----------------------------------------------------------------

    9    -286.7989956419      4.96E-09 Convergence criterion met
 Total energy in the final basis set = -286.79899564
 Final energy is   -286.798995641886
 **  OPTIMIZATION CONVERGED  **

                    Orbital Energies (a.u.)
 --------------------------------------------------------------

 Alpha MOs
 -- Occupied --
-14.319 -10.252 -10.231 -10.221 -10.220 -10.211 -10.207  -0.977
 -0.866  -0.762  -0.661  -0.615  -0.594  -0.551  -0.506  -0.456
 -0.434  -0.424  -0.406  -0.378  -0.341  -0.321  -0.278  -0.263
 -0.111

 Beta MOs
 -- Occupied --
-14.319 -10.254 -10.230 -10.220 -10.219 -10.203 -10.199  -0.974
 -0.863  -0.757  -0.652  -0.608  -0.593  -0.548  -0.496  -0.452
 -0.429  -0.422  -0.401  -0.372  -0.331  -0.294  -0.269  -0.259

          Ground-State Mulliken Net Atomic Charges

     Atom                 Charge (a.u.)    Spin (a.u.)
  --------------------------------------------------------
      1 C                     0.097273       0.040510
      2 C                    -0.212826       0.030151
      3 C                    -0.117366      -0.117457
      4 C                    -0.154254       0.497128
      5 C                    -0.034719       0.031308
      6 N                    -0.349488       0.028415
      7 H                     0.146620       0.000762
      8 H                     0.154176      -0.003546
      9 H                     0.183177       0.001480
     10 H                     0.144368      -0.011358
     11 H                     0.155037      -0.003524
     12 C                    -0.153761       0.507981
     13 H                     0.141764      -0.001850
  --------------------------------------------------------
  Sum of atomic charges =     0.000000

                    Cartesian Multipole Moments
 -----------------------------------------------------------------
    Charge (ESU x 10^10)
                 0.0000
    Dipole Moment (Debye)
         X      -1.6231      Y      -2.9746      Z      -0.9539
       Tot       3.5203
    Quadrupole Moments (Debye-Ang)
        XX     -36.5097     XY      -2.8458     YY     -43.0744
        XZ       0.9987     YZ       0.4641     ZZ     -43.8782

 Total job time:  890.66s(wall), 1482.60s(cpu)
        *  Thank you very much for using Q-Chem.  Have a nice day.  *
