 Q-Chem 5.0, Q-Chem, Inc., Pleasanton, CA (2017)
 Q-Chem 5.0.2 for Intel X86 EM64T Linux

User input:
--------------------------------------------------------------
$molecule
0 2
C        1.5817774021    0.3120151961   -0.3122421681
C        0.6705574181   -0.8850034414   -0.0964459145
C       -0.6147839286   -0.4163785966   -0.7283474707
C       -0.9774092738    0.5682604273    0.8128780744
C       -0.4744878904    1.0504386071   -0.5483289568
N        0.9553169006    1.4060716891   -0.5409374500
H        2.6589303224    0.2868294437   -0.1546823471
H        1.0419166784   -1.8939299535   -0.2578800626
H       -1.3057425376   -0.9745698267   -1.3508585737
H       -2.0288149060    0.6845983511    1.0737343376
H       -1.1174727517    1.7522927453   -1.0719248652
C       -0.1715907581   -0.6477523447    1.1360505493
H       -0.2339304782   -1.2594164913    2.0335375031
$end

$rem
method                b3lyp
basis                 6-31g(d)
unrestricted          true
symmetry              off
sym_ignore            true
incdft                false
incfock               0
scf_convergence       6
thresh                14
jobtype               sp
scf_guess             read
scf_algorithm         diis
max_scf_cycles        100
stability_analysis    true
max_cis_cycles        100
cis_n_roots           4
$end

--------------------------------------------------------------

             Standard Nuclear Orientation (Angstroms)
    I     Atom           X                Y                Z
 ----------------------------------------------------------------
    1      C       1.5817774021     0.3120151961    -0.3122421681
    2      C       0.6705574181    -0.8850034414    -0.0964459145
    3      C      -0.6147839286    -0.4163785966    -0.7283474707
    4      C      -0.9774092738     0.5682604273     0.8128780744
    5      C      -0.4744878904     1.0504386071    -0.5483289568
    6      N       0.9553169006     1.4060716891    -0.5409374500
    7      H       2.6589303224     0.2868294437    -0.1546823471
    8      H       1.0419166784    -1.8939299535    -0.2578800626
    9      H      -1.3057425376    -0.9745698267    -1.3508585737
   10      H      -2.0288149060     0.6845983511     1.0737343376
   11      H      -1.1174727517     1.7522927453    -1.0719248652
   12      C      -0.1715907581    -0.6477523447     1.1360505493
   13      H      -0.2339304782    -1.2594164913     2.0335375031
 ----------------------------------------------------------------

    2    -286.7932560631      2.25E-09 Convergence criterion met
 Total energy in the final basis set = -286.79325606

         TDDFT/TDA Excitation Energies
 ---------------------------------------------------

 Excited state   1: excitation energy (eV) =    1.2483
 Total energy for state  1:                  -286.74738148 au
    <S**2>     :  0.8643
    Trans. Mom.:  0.1006 X  -0.2125 Y  -0.3646 Z
    Strength   :     0.0057569151
    S(  1) --> V(  1) amplitude =  0.9346 alpha
    S(  1) --> V(  2) amplitude = -0.2804 alpha

 Excited state   2: excitation energy (eV) =    1.8405
 Total energy for state  2:                  -286.72561857 au
    <S**2>     :  0.7926
    Trans. Mom.:  0.3259 X   0.2062 Y  -0.1311 Z
    Strength   :     0.0074817888
    S(  1) --> V(  1) amplitude =  0.2913 alpha
    S(  1) --> V(  2) amplitude =  0.9494 alpha

 Excited state   3: excitation energy (eV) =    4.1445
 Total energy for state  3:                  -286.64094946 au
    <S**2>     :  0.7880
    Trans. Mom.: -0.0246 X  -0.0099 Y   0.0337 Z
    Strength   :     0.0001866097
    S(  1) --> V(  3) amplitude =  0.9927 alpha

 Excited state   4: excitation energy (eV) =    4.6218
 Total energy for state  4:                  -286.62340803 au
    <S**2>     :  2.6197
    Trans. Mom.: -0.0311 X  -0.0460 Y  -0.0106 Z
    Strength   :     0.0003620181
    D( 22) --> V(  2) amplitude = -0.2061 alpha
    D( 23) --> V(  1) amplitude = -0.3892 alpha
    D( 23) --> V(  2) amplitude = -0.4488 alpha
    D( 24) --> V(  2) amplitude = -0.1683 alpha
    D( 22) --> S(  1) amplitude = -0.4147 beta
    D( 22) --> V(  2) amplitude = -0.1781 beta
    D( 23) --> S(  1) amplitude = -0.5032 beta
    D( 23) --> V(  2) amplitude = -0.1825 beta

 ---------------------------------------------------

                    Orbital Energies (a.u.)
 --------------------------------------------------------------

 Alpha MOs
 -- Occupied --
-14.317 -10.234 -10.232 -10.221 -10.220 -10.208 -10.187  -0.965
 -0.846  -0.749  -0.669  -0.598  -0.582  -0.540  -0.513  -0.459
 -0.429  -0.417  -0.404  -0.370  -0.343  -0.292  -0.275  -0.265
 -0.106

 Beta MOs
 -- Occupied --
-14.316 -10.232 -10.231 -10.220 -10.219 -10.208 -10.176  -0.961
 -0.839  -0.745  -0.657  -0.592  -0.578  -0.535  -0.505  -0.452
 -0.426  -0.414  -0.400  -0.365  -0.338  -0.281  -0.263  -0.254

          Ground-State Mulliken Net Atomic Charges

     Atom                 Charge (a.u.)    Spin (a.u.)
  --------------------------------------------------------
      1 C                     0.097045       0.016525
      2 C                    -0.201469      -0.036914
      3 C                    -0.114900       0.151514
      4 C                    -0.115201       0.049384
      5 C                    -0.039284      -0.012724
      6 N                    -0.341677       0.036461
      7 H                     0.145780       0.004775
      8 H                     0.140274       0.009094
      9 H                     0.168902      -0.009127
     10 H                     0.157003       0.008234
     11 H                     0.152990       0.002940
     12 C                    -0.183377       0.814694
     13 H                     0.133912      -0.034857
  --------------------------------------------------------
  Sum of atomic charges =     0.000000

                    Cartesian Multipole Moments
 -----------------------------------------------------------------
    Charge (ESU x 10^10)
                -0.0000
    Dipole Moment (Debye)
         X      -1.4149      Y      -2.2087      Z      -0.5124
       Tot       2.6727
    Quadrupole Moments (Debye-Ang)
        XX     -37.1072     XY      -4.1628     YY     -43.4505
        XZ       1.1426     YZ       0.9776     ZZ     -41.1909

 Total job time:  114.73s(wall), 87.03s(cpu)
        *  Thank you very much for using Q-Chem.  Have a nice day.  *
