 Q-Chem 5.0, Q-Chem, Inc., Pleasanton, CA (2017)
 Q-Chem 5.0.2 for Intel X86 EM64T Linux

User input:
--------------------------------------------------------------
$molecule
0 2
C        1.6312646934    0.3549124158   -0.3493989471
C        0.7827285273   -0.8304456405   -0.0248477941
C       -0.5701089165   -0.4132064123   -0.5212560207
C       -0.9423415701    0.6376479873    0.8471736690
C       -0.4331628053    1.0818173686   -0.5316413158
N        0.9706041050    1.4226436515   -0.6367576186
H        2.7195451355    0.3449933508   -0.3394433329
H        1.1533516932   -1.8422698364   -0.1571583227
H       -1.3498423076   -1.0322953580   -0.9451260191
H       -2.0147747634    0.6826046071    1.0219603956
H       -1.1144471920    1.7011040738   -1.1064251121
C       -0.1648001710   -0.6202789857    1.1834783366
H       -0.6837502313   -1.5037714164    1.5539947377
$end

$rem
method                b3lyp
basis                 6-31+g(d,p)
unrestricted          true
symmetry              off
sym_ignore            true
incdft                false
incfock               0
scf_convergence       8
thresh                14
jobtype               freq
scf_guess             read
scf_algorithm         diis
max_scf_cycles        100
$end

--------------------------------------------------------------

             Standard Nuclear Orientation (Angstroms)
    I     Atom           X                Y                Z
 ----------------------------------------------------------------
    1      C       1.6312646934     0.3549124158    -0.3493989471
    2      C       0.7827285273    -0.8304456405    -0.0248477941
    3      C      -0.5701089165    -0.4132064123    -0.5212560207
    4      C      -0.9423415701     0.6376479873     0.8471736690
    5      C      -0.4331628053     1.0818173686    -0.5316413158
    6      N       0.9706041050     1.4226436515    -0.6367576186
    7      H       2.7195451355     0.3449933508    -0.3394433329
    8      H       1.1533516932    -1.8422698364    -0.1571583227
    9      H      -1.3498423076    -1.0322953580    -0.9451260191
   10      H      -2.0147747634     0.6826046071     1.0219603956
   11      H      -1.1144471920     1.7011040738    -1.1064251121
   12      C      -0.1648001710    -0.6202789857     1.1834783366
   13      H      -0.6837502313    -1.5037714164     1.5539947377
 ----------------------------------------------------------------

    2    -286.8209928243      2.55E-09 Convergence criterion met
 Total energy in the final basis set = -286.82099282

                    Orbital Energies (a.u.)
 --------------------------------------------------------------

 Alpha MOs
 -- Occupied --
-14.335 -10.263 -10.241 -10.232 -10.231 -10.224 -10.220  -0.989
 -0.879  -0.772  -0.672  -0.625  -0.603  -0.560  -0.515  -0.467
 -0.444  -0.433  -0.416  -0.388  -0.351  -0.332  -0.290  -0.276
 -0.124

 Beta MOs
 -- Occupied --
-14.334 -10.265 -10.241 -10.231 -10.230 -10.216 -10.213  -0.987
 -0.875  -0.767  -0.663  -0.618  -0.603  -0.557  -0.505  -0.463
 -0.440  -0.431  -0.411  -0.382  -0.342  -0.306  -0.281  -0.273

          Ground-State Mulliken Net Atomic Charges

     Atom                 Charge (a.u.)    Spin (a.u.)
  --------------------------------------------------------
      1 C                     0.065812       0.063926
      2 C                    -0.241636      -0.040334
      3 C                     0.220497      -0.021259
      4 C                    -0.117634       0.495178
      5 C                    -0.401616      -0.024897
      6 N                    -0.177327       0.027155
      7 H                     0.133381       0.000881
      8 H                     0.141757      -0.003381
      9 H                     0.169607       0.000636
     10 H                     0.153800      -0.011614
     11 H                     0.145297      -0.003476
     12 C                    -0.244456       0.519574
     13 H                     0.152518      -0.002389
  --------------------------------------------------------
  Sum of atomic charges =    -0.000000

                    Cartesian Multipole Moments
 -----------------------------------------------------------------
    Charge (ESU x 10^10)
                -0.0000
    Dipole Moment (Debye)
         X      -1.7251      Y      -3.2097      Z      -0.9621
       Tot       3.7688
    Quadrupole Moments (Debye-Ang)
        XX     -37.4555     XY      -3.2693     YY     -44.7309
        XZ       1.1510     YZ       0.5063     ZZ     -45.6270

 Frequency:      -726.97                 323.57                 377.48
 Force Cnst:      2.8875                 0.2994                 0.2790
 Red. Mass:       9.2733                 4.8538                 3.3234
 IR Intens:      111.096                 49.016                  5.489
 Frequency:       528.67                 617.51                 742.26
 Force Cnst:      0.7465                 0.5001                 0.7046
 Red. Mass:       4.5332                 2.2261                 2.1707
 IR Intens:       16.542                 20.778                 53.530
 Frequency:       751.48                 808.81                 824.19
 Force Cnst:      1.1129                 0.8091                 1.2603
 Red. Mass:       3.3447                 2.0992                 3.1490
 IR Intens:        2.381                 18.000                 24.988
 Frequency:       846.38                 884.70                 902.70
 Force Cnst:      0.5912                 1.3815                 0.7196
 Red. Mass:       1.4008                 2.9957                 1.4988
 IR Intens:        1.264                  6.680                 23.300
 Frequency:       943.75                 946.40                 961.98
 Force Cnst:      0.9481                 1.3623                 0.9493
 Red. Mass:       1.8068                 2.5814                 1.7411
 IR Intens:        3.373                 22.814                  6.386
 Frequency:      1011.00                1031.18                1054.55
 Force Cnst:      1.0487                 1.0880                 1.1976
 Red. Mass:       1.7414                 1.7366                 1.8278
 IR Intens:        5.225                  0.986                  7.254
 Frequency:      1098.50                1109.84                1213.35
 Force Cnst:      0.9798                 1.3453                 1.2360
 Red. Mass:       1.3782                 1.8537                 1.4249
 IR Intens:        1.314                  1.473                  0.200
 Frequency:      1255.18                1283.99                1315.49
 Force Cnst:      1.7925                 1.3619                 1.6988
 Red. Mass:       1.9311                 1.4021                 1.6661
 IR Intens:       16.223                  1.759                 12.264
 Frequency:      1335.12                1356.26                1621.39
 Force Cnst:      1.6215                 1.8955                10.3278
 Red. Mass:       1.5439                 1.7490                 6.6678
 IR Intens:        9.399                 17.538                 62.337
 Frequency:      3129.18                3168.54                3175.77
 Force Cnst:      6.2786                 6.4469                 6.4879
 Red. Mass:       1.0883                 1.0899                 1.0918
 IR Intens:       20.096                 11.074                 10.379
 Frequency:      3196.18                3199.40                3246.31
 Force Cnst:      6.5721                 6.5873                 6.8100
 Red. Mass:       1.0919                 1.0922                 1.0968
 IR Intens:       15.372                  5.454                  0.451

 STANDARD THERMODYNAMIC QUANTITIES AT   298.15 K  AND     1.00 ATM

   This Molecule has  1 Imaginary Frequencies
   Zero point vibrational energy:       63.274 kcal/mol

   Atom    1 Element C  Has Mass   12.00000
   Atom    2 Element C  Has Mass   12.00000
   Atom    3 Element C  Has Mass   12.00000
   Atom    4 Element C  Has Mass   12.00000
   Atom    5 Element C  Has Mass   12.00000
   Atom    6 Element N  Has Mass   14.00307
   Atom    7 Element H  Has Mass    1.00783
   Atom    8 Element H  Has Mass    1.00783
   Atom    9 Element H  Has Mass    1.00783
   Atom   10 Element H  Has Mass    1.00783
   Atom   11 Element H  Has Mass    1.00783
   Atom   12 Element C  Has Mass   12.00000
   Atom   13 Element H  Has Mass    1.00783
   Molecular Mass:    92.050050 amu
   Principal axes and moments of inertia in amu*Bohr^2:
                             1           2           3
    Eigenvalues --      346.23811   451.25024   613.47068
          X               0.74794    -0.58730     0.30929
          Y               0.44945     0.79100     0.41511
          Z              -0.48844    -0.17147     0.85558
   Rotational Symmetry Number is   1
   The Molecule is an Asymmetric Top
   Translational Enthalpy:        0.889 kcal/mol
   Rotational Enthalpy:           0.889 kcal/mol
   Vibrational Enthalpy:         64.496 kcal/mol
   gas constant (RT):             0.592 kcal/mol
   Translational Entropy:        39.471  cal/mol.K
   Rotational Entropy:           26.063  cal/mol.K
   Vibrational Entropy:           5.601  cal/mol.K

   Total Enthalpy:               66.866 kcal/mol
   Total Entropy:                71.135  cal/mol.K

 Total job time:  599.08s(wall), 558.12s(cpu)
        *  Thank you very much for using Q-Chem.  Have a nice day.  *
