 Q-Chem 5.0, Q-Chem, Inc., Pleasanton, CA (2017)
 Q-Chem 5.0.2 for Intel X86 EM64T Linux

User input:
--------------------------------------------------------------
$molecule
0 2
C        1.5817774021    0.3120151961   -0.3122421681
C        0.6705574181   -0.8850034414   -0.0964459145
C       -0.6147839286   -0.4163785966   -0.7283474707
C       -0.9774092738    0.5682604273    0.8128780744
C       -0.4744878904    1.0504386071   -0.5483289568
N        0.9553169006    1.4060716891   -0.5409374500
H        2.6589303224    0.2868294437   -0.1546823471
H        1.0419166784   -1.8939299535   -0.2578800626
H       -1.3057425376   -0.9745698267   -1.3508585737
H       -2.0288149060    0.6845983511    1.0737343376
H       -1.1174727517    1.7522927453   -1.0719248652
C       -0.1715907581   -0.6477523447    1.1360505493
H       -0.2339304782   -1.2594164913    2.0335375031
$end

$rem
method                b3lyp
basis                 6-31g(d)
unrestricted          true
symmetry              off
sym_ignore            true
incdft                false
incfock               0
scf_convergence       8
thresh                14
jobtype               freq
scf_guess             read
scf_algorithm         diis
max_scf_cycles        100
$end

--------------------------------------------------------------

             Standard Nuclear Orientation (Angstroms)
    I     Atom           X                Y                Z
 ----------------------------------------------------------------
    1      C       1.5817774021     0.3120151961    -0.3122421681
    2      C       0.6705574181    -0.8850034414    -0.0964459145
    3      C      -0.6147839286    -0.4163785966    -0.7283474707
    4      C      -0.9774092738     0.5682604273     0.8128780744
    5      C      -0.4744878904     1.0504386071    -0.5483289568
    6      N       0.9553169006     1.4060716891    -0.5409374500
    7      H       2.6589303224     0.2868294437    -0.1546823471
    8      H       1.0419166784    -1.8939299535    -0.2578800626
    9      H      -1.3057425376    -0.9745698267    -1.3508585737
   10      H      -2.0288149060     0.6845983511     1.0737343376
   11      H      -1.1174727517     1.7522927453    -1.0719248652
   12      C      -0.1715907581    -0.6477523447     1.1360505493
   13      H      -0.2339304782    -1.2594164913     2.0335375031
 ----------------------------------------------------------------

    2    -286.7932560631      2.03E-09 Convergence criterion met
 Total energy in the final basis set = -286.79325606

                    Orbital Energies (a.u.)
 --------------------------------------------------------------

 Alpha MOs
 -- Occupied --
-14.317 -10.234 -10.232 -10.221 -10.220 -10.208 -10.187  -0.965
 -0.846  -0.749  -0.669  -0.598  -0.582  -0.540  -0.513  -0.459
 -0.429  -0.417  -0.404  -0.370  -0.343  -0.292  -0.275  -0.265
 -0.106

 Beta MOs
 -- Occupied --
-14.316 -10.232 -10.231 -10.220 -10.219 -10.208 -10.176  -0.961
 -0.839  -0.745  -0.657  -0.592  -0.578  -0.535  -0.505  -0.452
 -0.426  -0.414  -0.400  -0.365  -0.338  -0.281  -0.263  -0.254

          Ground-State Mulliken Net Atomic Charges

     Atom                 Charge (a.u.)    Spin (a.u.)
  --------------------------------------------------------
      1 C                     0.097045       0.016525
      2 C                    -0.201469      -0.036914
      3 C                    -0.114900       0.151513
      4 C                    -0.115201       0.049385
      5 C                    -0.039284      -0.012724
      6 N                    -0.341677       0.036461
      7 H                     0.145780       0.004775
      8 H                     0.140274       0.009094
      9 H                     0.168902      -0.009127
     10 H                     0.157003       0.008234
     11 H                     0.152990       0.002940
     12 C                    -0.183377       0.814694
     13 H                     0.133912      -0.034857
  --------------------------------------------------------
  Sum of atomic charges =    -0.000000

                    Cartesian Multipole Moments
 -----------------------------------------------------------------
    Charge (ESU x 10^10)
                -0.0000
    Dipole Moment (Debye)
         X      -1.4149      Y      -2.2087      Z      -0.5124
       Tot       2.6727
    Quadrupole Moments (Debye-Ang)
        XX     -37.1072     XY      -4.1628     YY     -43.4505
        XZ       1.1426     YZ       0.9776     ZZ     -41.1909

 Frequency:      -931.27                -444.50                 213.47
 Force Cnst:      1.4440                 0.1646                 0.1218
 Red. Mass:       2.8260                 1.4139                 4.5376
 IR Intens:      394.485                 24.429                  4.047
 Frequency:       404.90                 468.75                 642.12
 Force Cnst:      0.3169                 0.5034                 0.6939
 Red. Mass:       3.2806                 3.8888                 2.8562
 IR Intens:        6.588                 11.031                 14.096
 Frequency:       689.44                 767.02                 804.16
 Force Cnst:      0.4095                 0.8872                 1.6280
 Red. Mass:       1.4620                 2.5594                 4.2728
 IR Intens:        4.654                 17.572                 24.292
 Frequency:       854.56                 873.91                 891.57
 Force Cnst:      2.5737                 0.7589                 0.8365
 Red. Mass:       5.9818                 1.6866                 1.7860
 IR Intens:       15.426                 11.900                  9.124
 Frequency:       924.56                 942.99                 971.67
 Force Cnst:      0.9277                 1.1634                 1.0856
 Red. Mass:       1.8421                 2.2206                 1.9516
 IR Intens:       14.313                  1.588                  1.435
 Frequency:      1004.79                1028.57                1044.69
 Force Cnst:      0.9780                 1.7563                 1.1028
 Red. Mass:       1.6441                 2.8176                 1.7150
 IR Intens:        1.601                  6.402                  2.760
 Frequency:      1120.83                1158.23                1228.22
 Force Cnst:      1.1197                 1.6183                 1.2884
 Red. Mass:       1.5127                 2.0475                 1.4496
 IR Intens:        1.839                  4.898                  1.768
 Frequency:      1273.01                1287.34                1307.83
 Force Cnst:      1.3704                 1.4831                 2.0985
 Red. Mass:       1.4353                 1.5189                 2.0824
 IR Intens:        1.542                  3.439                  6.694
 Frequency:      1335.90                1349.92                1653.97
 Force Cnst:      1.6623                 1.7622                12.4591
 Red. Mass:       1.5809                 1.6413                 7.7300
 IR Intens:       13.463                  1.130                 39.721
 Frequency:      3168.12                3174.09                3179.63
 Force Cnst:      6.4362                 6.4655                 6.5135
 Red. Mass:       1.0884                 1.0892                 1.0935
 IR Intens:        9.905                 13.055                 11.750
 Frequency:      3186.18                3196.70                3237.04
 Force Cnst:      6.5450                 6.5710                 6.7591
 Red. Mass:       1.0943                 1.0914                 1.0948
 IR Intens:       37.970                 20.095                  2.999

 STANDARD THERMODYNAMIC QUANTITIES AT   298.15 K  AND     1.00 ATM

   This Molecule has  2 Imaginary Frequencies
   Zero point vibrational energy:       62.021 kcal/mol

   Atom    1 Element C  Has Mass   12.00000
   Atom    2 Element C  Has Mass   12.00000
   Atom    3 Element C  Has Mass   12.00000
   Atom    4 Element C  Has Mass   12.00000
   Atom    5 Element C  Has Mass   12.00000
   Atom    6 Element N  Has Mass   14.00307
   Atom    7 Element H  Has Mass    1.00783
   Atom    8 Element H  Has Mass    1.00783
   Atom    9 Element H  Has Mass    1.00783
   Atom   10 Element H  Has Mass    1.00783
   Atom   11 Element H  Has Mass    1.00783
   Atom   12 Element C  Has Mass   12.00000
   Atom   13 Element H  Has Mass    1.00783
   Molecular Mass:    92.050050 amu
   Principal axes and moments of inertia in amu*Bohr^2:
                             1           2           3
    Eigenvalues --      367.83473   451.44627   585.62096
          X               0.75887    -0.59059     0.27445
          Y               0.46030     0.78453     0.41549
          Z              -0.46070    -0.18897     0.86721
   Rotational Symmetry Number is   1
   The Molecule is an Asymmetric Top
   Translational Enthalpy:        0.889 kcal/mol
   Rotational Enthalpy:           0.889 kcal/mol
   Vibrational Enthalpy:         63.303 kcal/mol
   gas constant (RT):             0.592 kcal/mol
   Translational Entropy:        39.471  cal/mol.K
   Rotational Entropy:           26.078  cal/mol.K
   Vibrational Entropy:           6.190  cal/mol.K

   Total Enthalpy:               65.673 kcal/mol
   Total Entropy:                71.739  cal/mol.K

 Total job time:  297.83s(wall), 264.69s(cpu)
        *  Thank you very much for using Q-Chem.  Have a nice day.  *
