 Q-Chem 5.0, Q-Chem, Inc., Pleasanton, CA (2017)
 Q-Chem 5.0.2 for Intel X86 EM64T Linux

User input:
--------------------------------------------------------------
$molecule
0 2
C        1.6322517459    0.3543648530   -0.3465257814
C        0.7808889647   -0.8318538957   -0.0283560322
C       -0.5700725752   -0.4158196605   -0.5324487334
C       -0.9438878130    0.6336396690    0.8425088615
C       -0.4366501473    1.0799369772   -0.5346192062
N        0.9686914328    1.4212284455   -0.6351252429
H        2.7196774137    0.3464596221   -0.3307138120
H        1.1529188411   -1.8428947204   -0.1586494908
H       -1.3478985809   -1.0351368499   -0.9585139253
H       -2.0112012016    0.6967558815    1.0376505037
H       -1.1170421309    1.7012313199   -1.1065941909
C       -0.1680845904   -0.6218672378    1.1774890920
H       -0.6753251617   -1.5025885983    1.5684506138
$end

$rem
method                b3lyp
basis                 6-31+g(d,p)
unrestricted          true
symmetry              off
sym_ignore            true
incdft                false
incfock               0
scf_convergence       6
thresh                14
jobtype               sp
scf_guess             read
scf_algorithm         diis
max_scf_cycles        100
stability_analysis    true
max_cis_cycles        100
cis_n_roots           4
$end

--------------------------------------------------------------

             Standard Nuclear Orientation (Angstroms)
    I     Atom           X                Y                Z
 ----------------------------------------------------------------
    1      C       1.6322517459     0.3543648530    -0.3465257814
    2      C       0.7808889647    -0.8318538957    -0.0283560322
    3      C      -0.5700725752    -0.4158196605    -0.5324487334
    4      C      -0.9438878130     0.6336396690     0.8425088615
    5      C      -0.4366501473     1.0799369772    -0.5346192062
    6      N       0.9686914328     1.4212284455    -0.6351252429
    7      H       2.7196774137     0.3464596221    -0.3307138120
    8      H       1.1529188411    -1.8428947204    -0.1586494908
    9      H      -1.3478985809    -1.0351368499    -0.9585139253
   10      H      -2.0112012016     0.6967558815     1.0376505037
   11      H      -1.1170421309     1.7012313199    -1.1065941909
   12      C      -0.1680845904    -0.6218672378     1.1774890920
   13      H      -0.6753251617    -1.5025885983     1.5684506138
 ----------------------------------------------------------------

    2    -286.8210745741      5.13E-10 Convergence criterion met
 Total energy in the final basis set = -286.82107457

         TDDFT/TDA Excitation Energies
 ---------------------------------------------------

 Excited state   1: excitation energy (eV) =    1.6540
 Total energy for state  1:                  -286.76029132 au
    <S**2>     :  0.7802
    Trans. Mom.: -0.4027 X  -0.1075 Y   0.4770 Z
    Strength   :     0.0162594491
    S(  1) --> V(  1) amplitude =  0.9923 alpha

 Excited state   2: excitation energy (eV) =    2.1364
 Total energy for state  2:                  -286.74256315 au
    <S**2>     :  0.7710
    Trans. Mom.:  0.0680 X  -0.2299 Y   0.0704 Z
    Strength   :     0.0032680210
    S(  1) --> V(  2) amplitude =  0.9913 alpha

 Excited state   3: excitation energy (eV) =    2.2403
 Total energy for state  3:                  -286.73874675 au
    <S**2>     :  0.7659
    Trans. Mom.:  0.2515 X  -0.2721 Y  -0.0098 Z
    Strength   :     0.0075386688
    S(  1) --> V(  3) amplitude =  0.9804 alpha

 Excited state   4: excitation energy (eV) =    2.9290
 Total energy for state  4:                  -286.71343725 au
    <S**2>     :  0.7730
    Trans. Mom.: -0.3633 X   0.0173 Y   0.0285 Z
    Strength   :     0.0095501672
    S(  1) --> V(  4) amplitude =  0.9837 alpha

 ---------------------------------------------------

                    Orbital Energies (a.u.)
 --------------------------------------------------------------

 Alpha MOs
 -- Occupied --
-14.335 -10.264 -10.241 -10.232 -10.230 -10.223 -10.219  -0.989
 -0.877  -0.772  -0.672  -0.625  -0.603  -0.560  -0.516  -0.467
 -0.444  -0.433  -0.416  -0.388  -0.351  -0.332  -0.290  -0.276
 -0.122

 Beta MOs
 -- Occupied --
-14.334 -10.265 -10.241 -10.231 -10.230 -10.215 -10.212  -0.986
 -0.874  -0.767  -0.663  -0.618  -0.603  -0.557  -0.506  -0.463
 -0.440  -0.431  -0.412  -0.382  -0.342  -0.306  -0.281  -0.272

          Ground-State Mulliken Net Atomic Charges

     Atom                 Charge (a.u.)    Spin (a.u.)
  --------------------------------------------------------
      1 C                     0.063404       0.061110
      2 C                    -0.237752      -0.040481
      3 C                     0.210786      -0.026425
      4 C                    -0.115159       0.501514
      5 C                    -0.397585      -0.025975
      6 N                    -0.176758       0.027188
      7 H                     0.133779       0.001165
      8 H                     0.141480      -0.003251
      9 H                     0.169192       0.000735
     10 H                     0.153205      -0.013042
     11 H                     0.145237      -0.003358
     12 C                    -0.241895       0.524600
     13 H                     0.152066      -0.003780
  --------------------------------------------------------
  Sum of atomic charges =     0.000000

                    Cartesian Multipole Moments
 -----------------------------------------------------------------
    Charge (ESU x 10^10)
                -0.0000
    Dipole Moment (Debye)
         X      -1.7072      Y      -3.1953      Z      -0.9432
       Tot       3.7436
    Quadrupole Moments (Debye-Ang)
        XX     -37.4589     XY      -3.3215     YY     -44.7302
        XZ       1.1479     YZ       0.5157     ZZ     -45.5208

 Total job time:  208.35s(wall), 169.86s(cpu)
        *  Thank you very much for using Q-Chem.  Have a nice day.  *
