 Q-Chem 5.0, Q-Chem, Inc., Pleasanton, CA (2017)
 Q-Chem 5.0.2 for Intel X86 EM64T Linux

User input:
--------------------------------------------------------------
$molecule
0 2
C        1.6312646934    0.3549124158   -0.3493989471
C        0.7827285273   -0.8304456405   -0.0248477941
C       -0.5701089165   -0.4132064123   -0.5212560207
C       -0.9423415701    0.6376479873    0.8471736690
C       -0.4331628053    1.0818173686   -0.5316413158
N        0.9706041050    1.4226436515   -0.6367576186
H        2.7195451355    0.3449933508   -0.3394433329
H        1.1533516932   -1.8422698364   -0.1571583227
H       -1.3498423076   -1.0322953580   -0.9451260191
H       -2.0147747634    0.6826046071    1.0219603956
H       -1.1144471920    1.7011040738   -1.1064251121
C       -0.1648001710   -0.6202789857    1.1834783366
H       -0.6837502313   -1.5037714164    1.5539947377
$end

$rem
method                b3lyp
basis                 6-31+g(d,p)
unrestricted          true
symmetry              off
sym_ignore            true
incdft                false
incfock               0
scf_convergence       8
thresh                14
jobtype               sp
scf_guess             core
scf_guess_mix         5
scf_algorithm         diis
max_scf_cycles        100
$end

--------------------------------------------------------------

             Standard Nuclear Orientation (Angstroms)
    I     Atom           X                Y                Z
 ----------------------------------------------------------------
    1      C       1.6312646934     0.3549124158    -0.3493989471
    2      C       0.7827285273    -0.8304456405    -0.0248477941
    3      C      -0.5701089165    -0.4132064123    -0.5212560207
    4      C      -0.9423415701     0.6376479873     0.8471736690
    5      C      -0.4331628053     1.0818173686    -0.5316413158
    6      N       0.9706041050     1.4226436515    -0.6367576186
    7      H       2.7195451355     0.3449933508    -0.3394433329
    8      H       1.1533516932    -1.8422698364    -0.1571583227
    9      H      -1.3498423076    -1.0322953580    -0.9451260191
   10      H      -2.0147747634     0.6826046071     1.0219603956
   11      H      -1.1144471920     1.7011040738    -1.1064251121
   12      C      -0.1648001710    -0.6202789857     1.1834783366
   13      H      -0.6837502313    -1.5037714164     1.5539947377
 ----------------------------------------------------------------

   22    -286.8209928242      6.98E-09 Convergence criterion met
 Total energy in the final basis set = -286.82099282

                    Orbital Energies (a.u.)
 --------------------------------------------------------------

 Alpha MOs
 -- Occupied --
-14.335 -10.263 -10.241 -10.232 -10.231 -10.224 -10.220  -0.989
 -0.879  -0.772  -0.672  -0.625  -0.603  -0.560  -0.515  -0.467
 -0.444  -0.433  -0.416  -0.388  -0.351  -0.332  -0.290  -0.276
 -0.124

 Beta MOs
 -- Occupied --
-14.334 -10.265 -10.241 -10.231 -10.230 -10.216 -10.213  -0.987
 -0.875  -0.767  -0.663  -0.618  -0.603  -0.557  -0.505  -0.463
 -0.440  -0.431  -0.411  -0.382  -0.342  -0.306  -0.281  -0.273

          Ground-State Mulliken Net Atomic Charges

     Atom                 Charge (a.u.)    Spin (a.u.)
  --------------------------------------------------------
      1 C                     0.065812       0.063931
      2 C                    -0.241636      -0.040334
      3 C                     0.220497      -0.021260
      4 C                    -0.117635       0.495179
      5 C                    -0.401616      -0.024896
      6 N                    -0.177327       0.027151
      7 H                     0.133381       0.000880
      8 H                     0.141757      -0.003381
      9 H                     0.169607       0.000637
     10 H                     0.153800      -0.011614
     11 H                     0.145297      -0.003476
     12 C                    -0.244456       0.519573
     13 H                     0.152518      -0.002389
  --------------------------------------------------------
  Sum of atomic charges =    -0.000000

                    Cartesian Multipole Moments
 -----------------------------------------------------------------
    Charge (ESU x 10^10)
                 0.0000
    Dipole Moment (Debye)
         X      -1.7251      Y      -3.2097      Z      -0.9621
       Tot       3.7688
    Quadrupole Moments (Debye-Ang)
        XX     -37.4555     XY      -3.2693     YY     -44.7309
        XZ       1.1510     YZ       0.5063     ZZ     -45.6270

 Total job time:  53.16s(wall), 115.15s(cpu)
        *  Thank you very much for using Q-Chem.  Have a nice day.  *
