 Q-Chem 5.0, Q-Chem, Inc., Pleasanton, CA (2017)
 Q-Chem 5.0.2 for Intel X86 EM64T Linux

User input:
--------------------------------------------------------------
$molecule
0 2
C        1.5349566673    0.4155116544   -0.2991145897
C        0.7937536540   -0.8452060303   -0.0385316718
C       -0.5437531197   -0.6754286578   -0.6645576319
C       -0.9927064327    0.7055328265    0.8708945478
C       -0.6107915569    0.9016521529   -0.5892109251
N        0.7882351990    1.4019443328   -0.6463960001
H        2.6103077777    0.5287516684   -0.1747318117
H        1.2749204431   -1.8160611980    0.0271690727
H       -1.0539897628   -1.3520431863   -1.3417537552
H       -1.2695066625    1.4033622704    1.6532263634
H       -1.2754252487    1.4678033339   -1.2422584037
C       -0.5287343189   -0.6747759312    0.8684769229
H       -0.7472825407   -1.4730196076    1.5690520480
$end

$rem
method                b3lyp
basis                 6-31+g(d,p)
unrestricted          true
symmetry              off
sym_ignore            true
incdft                false
incfock               0
scf_convergence       8
thresh                14
jobtype               opt
scf_guess             read
scf_algorithm         diis
max_scf_cycles        100
geom_opt_max_cycles   300
$end

--------------------------------------------------------------

   16    -286.8599558349      4.20E-09 Convergence criterion met
 Total energy in the final basis set = -286.85995583
   13    -286.8600935632      5.24E-09 Convergence criterion met
 Total energy in the final basis set = -286.86009356
   12    -286.8602140211      4.59E-09 Convergence criterion met
 Total energy in the final basis set = -286.86021402
   11    -286.8602820608      5.73E-09 Convergence criterion met
 Total energy in the final basis set = -286.86028206
   10    -286.8602911422      7.77E-09 Convergence criterion met
 Total energy in the final basis set = -286.86029114
    9    -286.8602923117      8.77E-09 Convergence criterion met
 Total energy in the final basis set = -286.86029231

             Standard Nuclear Orientation (Angstroms)
    I     Atom           X                Y                Z
 ----------------------------------------------------------------
    1      C       1.5187008164     0.4259548702    -0.2833967041
    2      C       0.7861196373    -0.8427165189    -0.0337433655
    3      C      -0.5482977618    -0.6839946812    -0.6727957014
    4      C      -1.0008182933     0.7025035281     0.8666656604
    5      C      -0.6254566916     0.8914652254    -0.5982079375
    6      N       0.7682092018     1.4051798441    -0.6438620495
    7      H       2.5899985707     0.5527790964    -0.1383734316
    8      H       1.2763508710    -1.8082142284     0.0380026217
    9      H      -1.0352287088    -1.3652901384    -1.3629477692
   10      H      -1.1351748648     1.4286849016     1.6629903542
   11      H      -1.2947741637     1.4501196217    -1.2530607413
   12      C      -0.5493942557    -0.6843569318     0.8563136285
   13      H      -0.7702502593    -1.4840909607     1.5546796009
 ----------------------------------------------------------------

    8    -286.8602924135      6.40E-09 Convergence criterion met
 Total energy in the final basis set = -286.86029241
 Final energy is   -286.860292413462
 **  OPTIMIZATION CONVERGED  **

                    Orbital Energies (a.u.)
 --------------------------------------------------------------

 Alpha MOs
 -- Occupied --
-14.332 -10.230 -10.230 -10.224 -10.222 -10.219 -10.211  -0.974
 -0.866  -0.757  -0.667  -0.618  -0.581  -0.544  -0.528  -0.473
 -0.441  -0.421  -0.398  -0.371  -0.347  -0.314  -0.274  -0.269
 -0.196

 Beta MOs
 -- Occupied --
-14.331 -10.231 -10.230 -10.225 -10.220 -10.217 -10.199  -0.970
 -0.862  -0.747  -0.657  -0.612  -0.577  -0.542  -0.518  -0.470
 -0.435  -0.416  -0.394  -0.367  -0.335  -0.305  -0.269  -0.266

          Ground-State Mulliken Net Atomic Charges

     Atom                 Charge (a.u.)    Spin (a.u.)
  --------------------------------------------------------
      1 C                    -0.097338       0.044386
      2 C                    -0.093823       0.113707
      3 C                    -0.126092       0.059783
      4 C                    -0.071812       1.021650
      5 C                    -0.075379      -0.123369
      6 N                    -0.210138       0.028537
      7 H                     0.132517       0.004402
      8 H                     0.138053       0.001096
      9 H                     0.132576      -0.000566
     10 H                     0.130146      -0.023069
     11 H                     0.135710       0.019276
     12 C                    -0.135032      -0.150642
     13 H                     0.140613       0.004809
  --------------------------------------------------------
  Sum of atomic charges =    -0.000000

                    Cartesian Multipole Moments
 -----------------------------------------------------------------
    Charge (ESU x 10^10)
                -0.0000
    Dipole Moment (Debye)
         X      -0.3752      Y      -2.6306      Z       0.5953
       Tot       2.7231
    Quadrupole Moments (Debye-Ang)
        XX     -40.1448     XY      -2.9676     YY     -43.7161
        XZ       1.7366     YZ       1.6346     ZZ     -41.2761

 Total job time:  137.43s(wall), 527.85s(cpu)
        *  Thank you very much for using Q-Chem.  Have a nice day.  *
