 Q-Chem 5.0, Q-Chem, Inc., Pleasanton, CA (2017)
 Q-Chem 5.0.2 for Intel X86 EM64T Linux

User input:
--------------------------------------------------------------
$molecule
0 2
C        1.5190299831    0.4270218315   -0.2889712789
C        0.7871657630   -0.8420399531   -0.0389963741
C       -0.5501855471   -0.6812296370   -0.6711893465
C       -0.9947374516    0.7016981034    0.8736733780
C       -0.6262907284    0.8940498213   -0.5924460919
N        0.7673551329    1.4075040609   -0.6435108482
H        2.5910847495    0.5531044192   -0.1490305526
H        1.2774088207   -1.8078752857    0.0279423272
H       -1.0405956620   -1.3607055215   -1.3606818287
H       -1.1258619534    1.4257642695    1.6725007342
H       -1.2983620680    1.4545586885   -1.2428578089
C       -0.5440968602   -0.6853043127    0.8579920153
H       -0.7619141785   -1.4865464843    1.5555756750
$end

$rem
method                b3lyp
basis                 6-31+g(d,p)
unrestricted          true
symmetry              off
sym_ignore            true
incdft                false
incfock               0
scf_convergence       6
thresh                14
jobtype               sp
scf_guess             read
scf_algorithm         diis
max_scf_cycles        100
stability_analysis    true
max_cis_cycles        100
cis_n_roots           4
$end

--------------------------------------------------------------

             Standard Nuclear Orientation (Angstroms)
    I     Atom           X                Y                Z
 ----------------------------------------------------------------
    1      C       1.5190299831     0.4270218315    -0.2889712789
    2      C       0.7871657630    -0.8420399531    -0.0389963741
    3      C      -0.5501855471    -0.6812296370    -0.6711893465
    4      C      -0.9947374516     0.7016981034     0.8736733780
    5      C      -0.6262907284     0.8940498213    -0.5924460919
    6      N       0.7673551329     1.4075040609    -0.6435108482
    7      H       2.5910847495     0.5531044192    -0.1490305526
    8      H       1.2774088207    -1.8078752857     0.0279423272
    9      H      -1.0405956620    -1.3607055215    -1.3606818287
   10      H      -1.1258619534     1.4257642695     1.6725007342
   11      H      -1.2983620680     1.4545586885    -1.2428578089
   12      C      -0.5440968602    -0.6853043127     0.8579920153
   13      H      -0.7619141785    -1.4865464843     1.5555756750
 ----------------------------------------------------------------

    2    -286.8602915691      3.98E-10 Convergence criterion met
 Total energy in the final basis set = -286.86029157

         TDDFT/TDA Excitation Energies
 ---------------------------------------------------

 Excited state   1: excitation energy (eV) =    3.6438
 Total energy for state  1:                  -286.72638338 au
    <S**2>     :  0.9003
    Trans. Mom.:  0.3707 X   0.0516 Y  -0.2216 Z
    Strength   :     0.0168924362
    S(  1) --> V(  1) amplitude =  0.9456 alpha
    D( 24) --> S(  1) amplitude = -0.2041 beta

 Excited state   2: excitation energy (eV) =    3.8075
 Total energy for state  2:                  -286.72036922 au
    <S**2>     :  1.1915
    Trans. Mom.:  0.0250 X  -0.0116 Y  -0.1200 Z
    Strength   :     0.0014146480
    D( 23) --> V(  1) amplitude = -0.2479 alpha
    D( 23) --> S(  1) amplitude =  0.8578 beta
    D( 23) --> V(  1) amplitude =  0.1593 beta
    D( 24) --> S(  1) amplitude = -0.3674 beta

 Excited state   3: excitation energy (eV) =    3.9352
 Total energy for state  3:                  -286.71567629 au
    <S**2>     :  1.0985
    Trans. Mom.:  0.2697 X   0.1036 Y  -0.0406 Z
    Strength   :     0.0082064163
    D( 23) --> V(  1) amplitude = -0.1651 alpha
    S(  1) --> V(  1) amplitude =  0.2535 alpha
    D( 23) --> S(  1) amplitude =  0.2925 beta
    D( 24) --> S(  1) amplitude =  0.8661 beta
    D( 24) --> V(  1) amplitude =  0.1741 beta

 Excited state   4: excitation energy (eV) =    4.5208
 Total energy for state  4:                  -286.69415465 au
    <S**2>     :  0.8269
    Trans. Mom.: -0.2000 X   0.0091 Y   0.0200 Z
    Strength   :     0.0044814673
    S(  1) --> V(  2) amplitude =  0.9691 alpha

 ---------------------------------------------------

                    Orbital Energies (a.u.)
 --------------------------------------------------------------

 Alpha MOs
 -- Occupied --
-14.332 -10.230 -10.230 -10.224 -10.222 -10.219 -10.211  -0.974
 -0.866  -0.757  -0.667  -0.618  -0.581  -0.544  -0.528  -0.473
 -0.441  -0.421  -0.398  -0.371  -0.347  -0.314  -0.274  -0.269
 -0.196

 Beta MOs
 -- Occupied --
-14.331 -10.231 -10.230 -10.225 -10.220 -10.217 -10.199  -0.970
 -0.862  -0.747  -0.657  -0.612  -0.577  -0.542  -0.518  -0.470
 -0.435  -0.416  -0.394  -0.367  -0.335  -0.305  -0.269  -0.266

          Ground-State Mulliken Net Atomic Charges

     Atom                 Charge (a.u.)    Spin (a.u.)
  --------------------------------------------------------
      1 C                    -0.097357       0.044378
      2 C                    -0.093735       0.113762
      3 C                    -0.125915       0.059890
      4 C                    -0.071759       1.021608
      5 C                    -0.075486      -0.123429
      6 N                    -0.210070       0.028561
      7 H                     0.132497       0.004401
      8 H                     0.138052       0.001095
      9 H                     0.132588      -0.000561
     10 H                     0.130150      -0.023105
     11 H                     0.135701       0.019280
     12 C                    -0.135283      -0.150683
     13 H                     0.140617       0.004805
  --------------------------------------------------------
  Sum of atomic charges =     0.000000

                    Cartesian Multipole Moments
 -----------------------------------------------------------------
    Charge (ESU x 10^10)
                 0.0000
    Dipole Moment (Debye)
         X      -0.3742      Y      -2.6324      Z       0.5904
       Tot       2.7237
    Quadrupole Moments (Debye-Ang)
        XX     -40.1323     XY      -2.9703     YY     -43.7271
        XZ       1.7228     YZ       1.6409     ZZ     -41.2827

 Total job time:  195.39s(wall), 193.32s(cpu)
        *  Thank you very much for using Q-Chem.  Have a nice day.  *
