 Q-Chem 5.0, Q-Chem, Inc., Pleasanton, CA (2017)
 Q-Chem 5.0.2 for Intel X86 EM64T Linux

User input:
--------------------------------------------------------------
$molecule
0 2
C        1.5220644764    0.3458674627   -0.2659712780
C        0.6261616804   -0.8923488114   -0.0628850116
C       -0.3976347031   -0.5227046610   -1.1413023795
C       -1.0009161738    0.5126632266    0.8106095797
C       -0.5872680970    0.8966071085   -0.6198986006
N        0.8501497357    1.3862781438   -0.5796611249
H        2.6024981005    0.3634926294   -0.1406525372
H        1.1087402191   -1.8690053058   -0.0747627544
H       -1.2181857219   -1.1794632011   -1.4229654464
H       -1.7239916303    1.0481435509    1.4148404578
H       -1.2349965784    1.5908292639   -1.1511280598
C       -0.2716181759   -0.5662072313    1.1492455630
H       -0.2750031321   -1.1141521746    2.0845315917
$end

$rem
method                b3lyp
basis                 6-31+g(d,p)
unrestricted          true
symmetry              off
sym_ignore            true
incdft                false
incfock               0
scf_convergence       8
thresh                14
jobtype               sp
scf_guess             core
scf_guess_mix         5
scf_algorithm         diis
max_scf_cycles        100
$end

--------------------------------------------------------------

             Standard Nuclear Orientation (Angstroms)
    I     Atom           X                Y                Z
 ----------------------------------------------------------------
    1      C       1.5220644764     0.3458674627    -0.2659712780
    2      C       0.6261616804    -0.8923488114    -0.0628850116
    3      C      -0.3976347031    -0.5227046610    -1.1413023795
    4      C      -1.0009161738     0.5126632266     0.8106095797
    5      C      -0.5872680970     0.8966071085    -0.6198986006
    6      N       0.8501497357     1.3862781438    -0.5796611249
    7      H       2.6024981005     0.3634926294    -0.1406525372
    8      H       1.1087402191    -1.8690053058    -0.0747627544
    9      H      -1.2181857219    -1.1794632011    -1.4229654464
   10      H      -1.7239916303     1.0481435509     1.4148404578
   11      H      -1.2349965784     1.5908292639    -1.1511280598
   12      C      -0.2716181759    -0.5662072313     1.1492455630
   13      H      -0.2750031321    -1.1141521746     2.0845315917
 ----------------------------------------------------------------

   21    -286.8734672519      5.86E-09 Convergence criterion met
 Total energy in the final basis set = -286.87346725

                    Orbital Energies (a.u.)
 --------------------------------------------------------------

 Alpha MOs
 -- Occupied --
-14.337 -10.234 -10.231 -10.221 -10.216 -10.213 -10.209  -0.965
 -0.833  -0.737  -0.715  -0.589  -0.583  -0.539  -0.520  -0.481
 -0.429  -0.420  -0.391  -0.383  -0.358  -0.305  -0.283  -0.271
 -0.206

 Beta MOs
 -- Occupied --
-14.336 -10.234 -10.231 -10.221 -10.212 -10.208 -10.202  -0.961
 -0.827  -0.735  -0.700  -0.587  -0.571  -0.536  -0.517  -0.472
 -0.425  -0.416  -0.389  -0.380  -0.352  -0.298  -0.273  -0.268

          Ground-State Mulliken Net Atomic Charges

     Atom                 Charge (a.u.)    Spin (a.u.)
  --------------------------------------------------------
      1 C                    -0.091668      -0.030608
      2 C                     0.008420      -0.061154
      3 C                    -0.271313       1.034032
      4 C                    -0.146823       0.048834
      5 C                     0.024030      -0.089795
      6 N                    -0.202860       0.024625
      7 H                     0.137338      -0.000133
      8 H                     0.124644       0.003504
      9 H                     0.138969      -0.025993
     10 H                     0.138895       0.000590
     11 H                     0.129360       0.003586
     12 C                    -0.127628       0.092304
     13 H                     0.138633       0.000209
  --------------------------------------------------------
  Sum of atomic charges =     0.000000

                    Cartesian Multipole Moments
 -----------------------------------------------------------------
    Charge (ESU x 10^10)
                 0.0000
    Dipole Moment (Debye)
         X      -0.7528      Y      -2.1349      Z       1.2734
       Tot       2.5973
    Quadrupole Moments (Debye-Ang)
        XX     -38.4775     XY      -4.5588     YY     -44.4169
        XZ       1.3460     YZ       0.6264     ZZ     -42.5946

 Total job time:  27.74s(wall), 106.84s(cpu)
        *  Thank you very much for using Q-Chem.  Have a nice day.  *
