 Q-Chem 5.0, Q-Chem, Inc., Pleasanton, CA (2017)
 Q-Chem 5.0.2 for Intel X86 EM64T Linux

User input:
--------------------------------------------------------------
$molecule
0 2
C        1.5457992283    0.3774224907   -0.3086425081
C        0.7249138119   -0.8603742445   -0.0388726522
C       -0.5045775321   -0.6125758033   -0.8533084980
C       -0.9460110504    0.6627811287    0.8696319591
C       -0.5902378376    0.9107932180   -0.5922754108
N        0.8320473775    1.3855477849   -0.6511709590
H        2.6234328709    0.4480084360   -0.1770437603
H        1.1908190780   -1.8424687306   -0.0163016944
H       -1.1425522131   -1.2915475993   -1.4001203484
H       -1.5831698292    1.2191190555    1.5416950899
H       -1.2561626157    1.5333337904   -1.1868344908
C       -0.3571729096   -0.6014339320    1.0171971211
H       -0.5571442820   -1.3405819753    1.7883103155
$end

$rem
method                b3lyp
basis                 6-31+g(d,p)
unrestricted          true
symmetry              off
sym_ignore            true
incdft                false
incfock               0
scf_convergence       6
thresh                14
jobtype               sp
scf_guess             read
scf_algorithm         diis
max_scf_cycles        100
stability_analysis    true
max_cis_cycles        100
cis_n_roots           4
$end

--------------------------------------------------------------

             Standard Nuclear Orientation (Angstroms)
    I     Atom           X                Y                Z
 ----------------------------------------------------------------
    1      C       1.5457992283     0.3774224907    -0.3086425081
    2      C       0.7249138119    -0.8603742445    -0.0388726522
    3      C      -0.5045775321    -0.6125758033    -0.8533084980
    4      C      -0.9460110504     0.6627811287     0.8696319591
    5      C      -0.5902378376     0.9107932180    -0.5922754108
    6      N       0.8320473775     1.3855477849    -0.6511709590
    7      H       2.6234328709     0.4480084360    -0.1770437603
    8      H       1.1908190780    -1.8424687306    -0.0163016944
    9      H      -1.1425522131    -1.2915475993    -1.4001203484
   10      H      -1.5831698292     1.2191190555     1.5416950899
   11      H      -1.2561626157     1.5333337904    -1.1868344908
   12      C      -0.3571729096    -0.6014339320     1.0171971211
   13      H      -0.5571442820    -1.3405819753     1.7883103155
 ----------------------------------------------------------------

    2    -286.8438158204      4.32E-09 Convergence criterion met
 Total energy in the final basis set = -286.84381582

         TDDFT/TDA Excitation Energies
 ---------------------------------------------------

 Excited state   1: excitation energy (eV) =    2.2555
 Total energy for state  1:                  -286.76092656 au
    <S**2>     :  0.7812
    Trans. Mom.:  0.1523 X   0.2935 Y   0.2223 Z
    Strength   :     0.0087753269
    S(  1) --> V(  1) amplitude =  0.9559 alpha
    S(  1) --> V(  2) amplitude = -0.2058 alpha

 Excited state   2: excitation energy (eV) =    2.6894
 Total energy for state  2:                  -286.74498382 au
    <S**2>     :  0.7831
    Trans. Mom.:  0.3097 X  -0.0403 Y  -0.3263 Z
    Strength   :     0.0134444653
    S(  1) --> V(  1) amplitude =  0.2368 alpha
    S(  1) --> V(  2) amplitude =  0.9403 alpha

 Excited state   3: excitation energy (eV) =    3.2416
 Total energy for state  3:                  -286.72468796 au
    <S**2>     :  0.7879
    Trans. Mom.: -0.0712 X   0.0007 Y  -0.2580 Z
    Strength   :     0.0056910217
    S(  1) --> V(  3) amplitude =  0.9830 alpha

 Excited state   4: excitation energy (eV) =    3.8690
 Total energy for state  4:                  -286.70163395 au
    <S**2>     :  0.7877
    Trans. Mom.: -0.0289 X  -0.1033 Y  -0.0573 Z
    Strength   :     0.0014012268
    S(  1) --> V(  4) amplitude =  0.9552 alpha
    S(  1) --> V(  5) amplitude = -0.2438 alpha

 ---------------------------------------------------

                    Orbital Energies (a.u.)
 --------------------------------------------------------------

 Alpha MOs
 -- Occupied --
-14.334 -10.234 -10.231 -10.228 -10.225 -10.222 -10.199  -0.969
 -0.850  -0.750  -0.690  -0.601  -0.587  -0.546  -0.524  -0.474
 -0.436  -0.418  -0.409  -0.387  -0.351  -0.307  -0.286  -0.266
 -0.152

 Beta MOs
 -- Occupied --
-14.334 -10.236 -10.232 -10.228 -10.225 -10.214 -10.189  -0.965
 -0.844  -0.743  -0.680  -0.597  -0.577  -0.544  -0.516  -0.469
 -0.432  -0.413  -0.407  -0.385  -0.346  -0.291  -0.277  -0.262

          Ground-State Mulliken Net Atomic Charges

     Atom                 Charge (a.u.)    Spin (a.u.)
  --------------------------------------------------------
      1 C                    -0.063811       0.042476
      2 C                    -0.016692      -0.032507
      3 C                    -0.278418       0.641354
      4 C                    -0.133725       0.738276
      5 C                     0.016461      -0.123891
      6 N                    -0.207647      -0.003041
      7 H                     0.134938       0.001340
      8 H                     0.131548       0.003599
      9 H                     0.147324      -0.028087
     10 H                     0.138786      -0.030249
     11 H                     0.130425       0.008309
     12 C                    -0.139729      -0.230210
     13 H                     0.140538       0.012630
  --------------------------------------------------------
  Sum of atomic charges =    -0.000000

                    Cartesian Multipole Moments
 -----------------------------------------------------------------
    Charge (ESU x 10^10)
                -0.0000
    Dipole Moment (Debye)
         X      -0.6839      Y      -2.7630      Z       0.7513
       Tot       2.9438
    Quadrupole Moments (Debye-Ang)
        XX     -39.2280     XY      -3.9297     YY     -44.1025
        XZ       1.4193     YZ       0.7251     ZZ     -42.0501

 Total job time:  198.77s(wall), 196.14s(cpu)
        *  Thank you very much for using Q-Chem.  Have a nice day.  *
