 Q-Chem 5.0, Q-Chem, Inc., Pleasanton, CA (2017)
 Q-Chem 5.0.2 for Intel X86 EM64T Linux

User input:
--------------------------------------------------------------
$molecule
0 2
C        1.5196817895    0.3440739078   -0.2649461972
C        0.6224748319   -0.8939218341   -0.0647136388
C       -0.3953703744   -0.5206731519   -1.1472882853
C       -1.0023286462    0.5091940545    0.8086810719
C       -0.5861713701    0.8954094682   -0.6198733192
N        0.8530895815    1.3865087220   -0.5766345126
H        2.6004622616    0.3578332345   -0.1344527725
H        1.1022922546   -1.8726626952   -0.0767669264
H       -1.2213134024   -1.1742516431   -1.4232003148
H       -1.7271370039    1.0439991456    1.4125314193
H       -1.2321738086    1.5929355166   -1.1508801546
C       -0.2722119407   -0.5659090966    1.1475628476
H       -0.2612941731   -1.1025356283    2.0899807822
****
C        1.5752232761    0.3862015484   -0.3519328588
C        0.7979074500   -0.8454910326   -0.0269989389
C       -0.5582847917   -0.6278443232   -0.6149038824
C       -0.8369160272    0.7823840404    0.9479916968
C       -0.5514564849    0.9466617470   -0.5501150078
N        0.8572729289    1.3903281001   -0.6922240316
H        2.6597371001    0.4591219410   -0.2779753897
H        1.2479093777   -1.8332529072   -0.0005100662
H       -1.1140808412   -1.2927537139   -1.2698257331
H       -1.7130670795    1.1632599089    1.4603718003
H       -1.2383617506    1.5310555612   -1.1619888561
C       -0.4362711353   -0.6374050982    0.9165334039
H       -0.6896120224   -1.4222657720    1.6215778637
$end

$rem
method                b3lyp
basis                 6-31g(d)
unrestricted          true
symmetry              off
sym_ignore            true
incdft                false
incfock               0
scf_convergence       8
thresh                14
jobtype               fsm
scf_guess             core
scf_guess_mix         5
scf_algorithm         diis
max_scf_cycles        100
fsm_nnode             21
fsm_ngrad             6
fsm_mode              2
fsm_opt_mode          2
$end

--------------------------------------------------------------

   21    -286.8516365108      6.29E-09 Convergence criterion met
 Total energy in the final basis set = -286.85163651
   20    -286.8364797646      9.41E-09 Convergence criterion met
 Total energy in the final basis set = -286.83647976
   21    -286.8511628055      2.49E-09 Convergence criterion met
 Total energy in the final basis set = -286.85116281
   21    -286.8488168602      4.35E-09 Convergence criterion met
 Total energy in the final basis set = -286.84881686
   21    -286.8502161011      3.28E-09 Convergence criterion met
 Total energy in the final basis set = -286.85021610
   22    -286.8358972413      7.54E-09 Convergence criterion met
 Total energy in the final basis set = -286.83589724
   21    -286.8353555695      6.14E-09 Convergence criterion met
 Total energy in the final basis set = -286.83535557
   22    -286.8350142593      3.77E-09 Convergence criterion met
 Total energy in the final basis set = -286.81978546
   23    -286.8199533192      6.59E-09 Convergence criterion met
 Total energy in the final basis set = -286.81995332
   23    -286.8197852399      3.68E-09 Convergence criterion met
 Total energy in the final basis set = -286.81978524
   23    -286.8199554424      6.73E-09 Convergence criterion met
 Total energy in the final basis set = -286.81995544
   23    -286.8197796951      3.76E-09 Convergence criterion met
 Total energy in the final basis set = -286.81977970
   23    -286.8199627663      6.83E-09 Convergence criterion met
 Total energy in the final basis set = -286.81996277
   23    -286.8197735580      3.79E-09 Convergence criterion met
 Total energy in the final basis set = -286.81977356
   23    -286.8199711083      6.95E-09 Convergence criterion met
 Total energy in the final basis set = -286.81997111

                    Orbital Energies (a.u.)
 --------------------------------------------------------------

 Alpha MOs
 -- Occupied --
-14.317 -10.220 -10.220 -10.216 -10.214 -10.207 -10.186  -0.956
 -0.837  -0.738  -0.681  -0.591  -0.576  -0.537  -0.512  -0.463
 -0.427  -0.404  -0.398  -0.381  -0.338  -0.298  -0.277  -0.251
 -0.137

 Beta MOs
 -- Occupied --
-14.317 -10.223 -10.220 -10.215 -10.214 -10.196 -10.177  -0.952
 -0.832  -0.731  -0.670  -0.587  -0.566  -0.536  -0.504  -0.457
 -0.423  -0.400  -0.395  -0.379  -0.333  -0.281  -0.265  -0.248

          Ground-State Mulliken Net Atomic Charges

     Atom                 Charge (a.u.)    Spin (a.u.)
  --------------------------------------------------------
      1 C                     0.104317       0.030371
      2 C                    -0.208964      -0.007514
      3 C                    -0.134524       0.676199
      4 C                    -0.078889       0.643239
      5 C                    -0.101932      -0.065766
      6 N                    -0.334414      -0.002870
      7 H                     0.145960       0.000804
      8 H                     0.141859       0.003016
      9 H                     0.156390      -0.035461
     10 H                     0.140746      -0.033081
     11 H                     0.142684       0.005594
     12 C                    -0.123685      -0.228343
     13 H                     0.150450       0.013812
  --------------------------------------------------------
  Sum of atomic charges =    -0.000000

                    Cartesian Multipole Moments
 -----------------------------------------------------------------
    Charge (ESU x 10^10)
                 0.0000
    Dipole Moment (Debye)
         X      -0.8409      Y      -2.5583      Z       0.7268
       Tot       2.7893
    Quadrupole Moments (Debye-Ang)
        XX     -37.4917     XY      -3.3369     YY     -42.5471
        XZ       1.0700     YZ       0.3897     ZZ     -41.0082

             Standard Nuclear Orientation (Angstroms)
    I     Atom           X                Y                Z
 ----------------------------------------------------------------
    1      C       1.5523330072     0.3737772416    -0.3186074806
    2      C       0.7245203547    -0.8589642689    -0.0388355789
    3      C      -0.4909236383    -0.5978229204    -0.8741633086
    4      C      -0.9087389334     0.6749641817     0.8862959705
    5      C      -0.5735878410     0.9211522076    -0.5868072956
    6      N       0.8531451505     1.3885744343    -0.6577684955
    7      H       2.6332477702     0.4278751644    -0.1967590579
    8      H       1.1818481117    -1.8457950373    -0.0157083932
    9      H      -1.1921336474    -1.2724344272    -1.3417660392
   10      H      -1.6973822192     1.1291502945     1.4680765607
   11      H      -1.2371155934     1.5585351725    -1.1679678655
   12      C      -0.3304703623    -0.5844399236     1.0338703198
   13      H      -0.5347580622    -1.3265485000     1.8024048276
 ----------------------------------------------------------------

 Total job time:  1453.72s(wall), 5355.05s(cpu)
        *  Thank you very much for using Q-Chem.  Have a nice day.  *
