 Q-Chem 5.0, Q-Chem, Inc., Pleasanton, CA (2017)
 Q-Chem 5.0.2 for Intel X86 EM64T Linux

User input:
--------------------------------------------------------------
$molecule
0 2
C        1.5457992283    0.3774224907   -0.3086425081
C        0.7249138119   -0.8603742445   -0.0388726522
C       -0.5045775321   -0.6125758033   -0.8533084980
C       -0.9460110504    0.6627811287    0.8696319591
C       -0.5902378376    0.9107932180   -0.5922754108
N        0.8320473775    1.3855477849   -0.6511709590
H        2.6234328709    0.4480084360   -0.1770437603
H        1.1908190780   -1.8424687306   -0.0163016944
H       -1.1425522131   -1.2915475993   -1.4001203484
H       -1.5831698292    1.2191190555    1.5416950899
H       -1.2561626157    1.5333337904   -1.1868344908
C       -0.3571729096   -0.6014339320    1.0171971211
H       -0.5571442820   -1.3405819753    1.7883103155
$end

$rem
method                b3lyp
basis                 6-31+g(d,p)
unrestricted          true
symmetry              off
sym_ignore            true
incdft                false
incfock               0
scf_convergence       8
thresh                14
jobtype               rpath
scf_guess             core
scf_guess_mix         5
scf_algorithm         diis
max_scf_cycles        100
rpath_direction       1
rpath_tol_displacement 1000
rpath_max_cycles      50
geom_opt_max_cycles   300
geom_opt_hessian      read
$end

--------------------------------------------------------------

   24    -286.8438158203      5.79E-09 Convergence criterion met
 Total energy in the final basis set = -286.84381582
   23    -286.8457083459      6.75E-09 Convergence criterion met
 Total energy in the final basis set = -286.84570835
   23    -286.8456745288      6.59E-09 Convergence criterion met
 Total energy in the final basis set = -286.84567453
   23    -286.8457123907      6.63E-09 Convergence criterion met
 Total energy in the final basis set = -286.84571239
   23    -286.8496807493      9.33E-09 Convergence criterion met
 Total energy in the final basis set = -286.84968075
   23    -286.8495611858      8.91E-09 Convergence criterion met
 Total energy in the final basis set = -286.84956119
   23    -286.8496911248      9.97E-09 Convergence criterion met
 Total energy in the final basis set = -286.84969112
   23    -286.8533830603      7.56E-09 Convergence criterion met
 Total energy in the final basis set = -286.87316298
   21    -286.8734554722      6.25E-09 Convergence criterion met
 Total energy in the final basis set = -286.87345547
   22    -286.8733708606      7.34E-09 Convergence criterion met
 Total energy in the final basis set = -286.87337086
   21    -286.8734653867      5.94E-09 Convergence criterion met
 Total energy in the final basis set = -286.87346539
   22    -286.8682553672      4.63E-09 Convergence criterion met
 Total energy in the final basis set = -286.86825537
   21    -286.8734669325      5.82E-09 Convergence criterion met
 Total energy in the final basis set = -286.87346693
   21    -286.8734668328      5.89E-09 Convergence criterion met
 Total energy in the final basis set = -286.87346683
   21    -286.8734672519      5.86E-09 Convergence criterion met
 Total energy in the final basis set = -286.87346725

                    Orbital Energies (a.u.)
 --------------------------------------------------------------

 Alpha MOs
 -- Occupied --
-14.337 -10.234 -10.231 -10.221 -10.216 -10.213 -10.209  -0.965
 -0.833  -0.737  -0.715  -0.589  -0.583  -0.539  -0.520  -0.481
 -0.429  -0.420  -0.391  -0.383  -0.358  -0.305  -0.283  -0.271
 -0.206

 Beta MOs
 -- Occupied --
-14.336 -10.234 -10.231 -10.221 -10.212 -10.208 -10.202  -0.961
 -0.827  -0.735  -0.700  -0.587  -0.571  -0.536  -0.517  -0.472
 -0.425  -0.416  -0.389  -0.380  -0.352  -0.298  -0.273  -0.268

          Ground-State Mulliken Net Atomic Charges

     Atom                 Charge (a.u.)    Spin (a.u.)
  --------------------------------------------------------
      1 C                    -0.091668      -0.030608
      2 C                     0.008420      -0.061154
      3 C                    -0.271313       1.034032
      4 C                    -0.146823       0.048834
      5 C                     0.024030      -0.089795
      6 N                    -0.202860       0.024625
      7 H                     0.137338      -0.000133
      8 H                     0.124644       0.003504
      9 H                     0.138969      -0.025993
     10 H                     0.138895       0.000590
     11 H                     0.129360       0.003586
     12 C                    -0.127628       0.092304
     13 H                     0.138633       0.000209
  --------------------------------------------------------
  Sum of atomic charges =    -0.000000

                    Cartesian Multipole Moments
 -----------------------------------------------------------------
    Charge (ESU x 10^10)
                -0.0000
    Dipole Moment (Debye)
         X      -0.7528      Y      -2.1349      Z       1.2734
       Tot       2.5973
    Quadrupole Moments (Debye-Ang)
        XX     -38.4752     XY      -4.5548     YY     -44.4129
        XZ       1.3444     YZ       0.6265     ZZ     -42.5961

             Standard Nuclear Orientation (Angstroms)
    I     Atom           X                Y                Z
 ----------------------------------------------------------------
    1      C       1.5457992283     0.3774224907    -0.3086425081
    2      C       0.7249138119    -0.8603742445    -0.0388726522
    3      C      -0.5045775321    -0.6125758033    -0.8533084980
    4      C      -0.9460110504     0.6627811287     0.8696319591
    5      C      -0.5902378376     0.9107932180    -0.5922754108
    6      N       0.8320473775     1.3855477849    -0.6511709590
    7      H       2.6234328709     0.4480084360    -0.1770437603
    8      H       1.1908190780    -1.8424687306    -0.0163016944
    9      H      -1.1425522131    -1.2915475993    -1.4001203484
   10      H      -1.5831698292     1.2191190555     1.5416950899
   11      H      -1.2561626157     1.5333337904    -1.1868344908
   12      C      -0.3571729096    -0.6014339320     1.0171971211
   13      H      -0.5571442820    -1.3405819753     1.7883103155
 ----------------------------------------------------------------

 Total job time:  10054.61s(wall), 38695.65s(cpu)
        *  Thank you very much for using Q-Chem.  Have a nice day.  *
