 Q-Chem 5.0, Q-Chem, Inc., Pleasanton, CA (2017)
 Q-Chem 5.0.2 for Intel X86 EM64T Linux

User input:
--------------------------------------------------------------
$molecule
0 2
C        1.5753679093    0.3864788725   -0.3512475155
C        0.7977648760   -0.8454212369   -0.0274360727
C       -0.5587405822   -0.6278946233   -0.6144534106
C       -0.8372152388    0.7822875094    0.9479234555
C       -0.5511250432    0.9466463528   -0.5501673317
N        0.8577007544    1.3905671501   -0.6919022744
H        2.6599291271    0.4589366719   -0.2781146930
H        1.2472111904   -1.8334598149   -0.0014193331
H       -1.1149677950   -1.2923680864   -1.2694450129
H       -1.7144147633    1.1623257940    1.4592341836
H       -1.2376485792    1.5311299547   -1.1623405678
C       -0.4355570371   -0.6373090374    0.9168993255
H       -0.6883048184   -1.4219195066    1.6224692471
$end

$rem
method                b3lyp
basis                 6-31g(d)
unrestricted          true
symmetry              off
sym_ignore            true
incdft                false
incfock               0
scf_convergence       8
thresh                14
jobtype               opt
scf_guess             core
scf_guess_mix         5
scf_algorithm         diis
max_scf_cycles        100
geom_opt_max_cycles   300
$end

--------------------------------------------------------------

   20    -286.8364791071      9.42E-09 Convergence criterion met
 Total energy in the final basis set = -286.83647911

             Standard Nuclear Orientation (Angstroms)
    I     Atom           X                Y                Z
 ----------------------------------------------------------------
    1      C       1.5752232761     0.3862015484    -0.3519328588
    2      C       0.7979074500    -0.8454910326    -0.0269989389
    3      C      -0.5582847917    -0.6278443232    -0.6149038824
    4      C      -0.8369160272     0.7823840404     0.9479916968
    5      C      -0.5514564849     0.9466617470    -0.5501150078
    6      N       0.8572729289     1.3903281001    -0.6922240316
    7      H       2.6597371001     0.4591219410    -0.2779753897
    8      H       1.2479093777    -1.8332529072    -0.0005100662
    9      H      -1.1140808412    -1.2927537139    -1.2698257331
   10      H      -1.7130670795     1.1632599089     1.4603718003
   11      H      -1.2383617506     1.5310555612    -1.1619888561
   12      C      -0.4362711353    -0.6374050982     0.9165334039
   13      H      -0.6896120224    -1.4222657720     1.6215778637
 ----------------------------------------------------------------

   16    -286.8364797628      4.66E-09 Convergence criterion met
 Total energy in the final basis set = -286.83647976
 Final energy is   -286.836479762849
 **  OPTIMIZATION CONVERGED  **

                    Orbital Energies (a.u.)
 --------------------------------------------------------------

 Alpha MOs
 -- Occupied --
-14.317 -10.220 -10.220 -10.215 -10.212 -10.211 -10.194  -0.964
 -0.858  -0.746  -0.657  -0.608  -0.574  -0.540  -0.512  -0.463
 -0.429  -0.412  -0.388  -0.366  -0.329  -0.315  -0.266  -0.256
 -0.174

 Beta MOs
 -- Occupied --
-14.317 -10.221 -10.220 -10.216 -10.211 -10.210 -10.181  -0.961
 -0.854  -0.737  -0.646  -0.602  -0.571  -0.538  -0.501  -0.461
 -0.425  -0.406  -0.384  -0.362  -0.317  -0.303  -0.262  -0.254

          Ground-State Mulliken Net Atomic Charges

     Atom                 Charge (a.u.)    Spin (a.u.)
  --------------------------------------------------------
      1 C                     0.096710       0.006739
      2 C                    -0.192782       0.036925
      3 C                    -0.106639       0.107563
      4 C                    -0.071145       0.952539
      5 C                    -0.099589      -0.043525
      6 N                    -0.337404       0.012641
      7 H                     0.143774       0.003962
      8 H                     0.148717       0.001432
      9 H                     0.149506       0.008560
     10 H                     0.139521      -0.039500
     11 H                     0.141841       0.005464
     12 C                    -0.162104      -0.053179
     13 H                     0.149594       0.000379
  --------------------------------------------------------
  Sum of atomic charges =     0.000000

                    Cartesian Multipole Moments
 -----------------------------------------------------------------
    Charge (ESU x 10^10)
                 0.0000
    Dipole Moment (Debye)
         X      -0.9317      Y      -2.6583      Z       0.3127
       Tot       2.8341
    Quadrupole Moments (Debye-Ang)
        XX     -37.3012     XY      -3.2023     YY     -42.7870
        XZ       0.7474     YZ       0.7442     ZZ     -41.1774

 Total job time:  28.01s(wall), 105.33s(cpu)
        *  Thank you very much for using Q-Chem.  Have a nice day.  *
