 Q-Chem 5.0, Q-Chem, Inc., Pleasanton, CA (2017)
 Q-Chem 5.0.2 for Intel X86 EM64T Linux

User input:
--------------------------------------------------------------
$molecule
0 2
C        1.5189874062    0.3441588063   -0.2644252994
C        0.6216192586   -0.8944701024   -0.0647318007
C       -0.3948716278   -0.5208172525   -1.1474916430
C       -1.0026577606    0.5083552418    0.8086557238
C       -0.5872412418    0.8947648274   -0.6197781154
N        0.8524697132    1.3865955360   -0.5761305058
H        2.5997530457    0.3578848315   -0.1336547130
H        1.1020933072   -1.8728860788   -0.0775504506
H       -1.2194040131   -1.1747379185   -1.4269638383
H       -1.7237658678    1.0470917705    1.4134949852
H       -1.2335871503    1.5920977564   -1.1505755036
C       -0.2723898965   -0.5664110507    1.1480186723
H       -0.2610051735   -1.1016263668    2.0911324881
$end

$rem
method                b3lyp
basis                 6-31g(d)
unrestricted          true
symmetry              off
sym_ignore            true
incdft                false
incfock               0
scf_convergence       8
thresh                14
jobtype               opt
scf_guess             core
scf_guess_mix         5
scf_algorithm         diis
max_scf_cycles        100
geom_opt_max_cycles   300
$end

--------------------------------------------------------------

   21    -286.8516345402      6.30E-09 Convergence criterion met
 Total energy in the final basis set = -286.85163454
   16    -286.8516361591      4.04E-09 Convergence criterion met
 Total energy in the final basis set = -286.85163616

             Standard Nuclear Orientation (Angstroms)
    I     Atom           X                Y                Z
 ----------------------------------------------------------------
    1      C       1.5196817895     0.3440739078    -0.2649461972
    2      C       0.6224748319    -0.8939218341    -0.0647136388
    3      C      -0.3953703744    -0.5206731519    -1.1472882853
    4      C      -1.0023286462     0.5091940545     0.8086810719
    5      C      -0.5861713701     0.8954094682    -0.6198733192
    6      N       0.8530895815     1.3865087220    -0.5766345126
    7      H       2.6004622616     0.3578332345    -0.1344527725
    8      H       1.1022922546    -1.8726626952    -0.0767669264
    9      H      -1.2213134024    -1.1742516431    -1.4232003148
   10      H      -1.7271370039     1.0439991456     1.4125314193
   11      H      -1.2321738086     1.5929355166    -1.1508801546
   12      C      -0.2722119407    -0.5659090966     1.1475628476
   13      H      -0.2612941731    -1.1025356283     2.0899807822
 ----------------------------------------------------------------

   16    -286.8516365108      4.04E-09 Convergence criterion met
 Total energy in the final basis set = -286.85163651
 Final energy is   -286.851636510825
 **  OPTIMIZATION CONVERGED  **

                    Orbital Energies (a.u.)
 --------------------------------------------------------------

 Alpha MOs
 -- Occupied --
-14.322 -10.223 -10.220 -10.210 -10.204 -10.201 -10.197  -0.952
 -0.821  -0.726  -0.705  -0.579  -0.573  -0.531  -0.512  -0.472
 -0.418  -0.410  -0.381  -0.373  -0.348  -0.294  -0.271  -0.258
 -0.196

 Beta MOs
 -- Occupied --
-14.321 -10.224 -10.221 -10.210 -10.200 -10.196 -10.190  -0.949
 -0.815  -0.725  -0.690  -0.577  -0.561  -0.527  -0.509  -0.463
 -0.414  -0.406  -0.379  -0.369  -0.342  -0.287  -0.261  -0.255

          Ground-State Mulliken Net Atomic Charges

     Atom                 Charge (a.u.)    Spin (a.u.)
  --------------------------------------------------------
      1 C                     0.092159      -0.008831
      2 C                    -0.245794      -0.043950
      3 C                    -0.096669       0.975960
      4 C                    -0.088110       0.040458
      5 C                    -0.094677      -0.045172
      6 N                    -0.324968       0.022046
      7 H                     0.149647      -0.000174
      8 H                     0.133887       0.002856
      9 H                     0.138918      -0.026654
     10 H                     0.146065       0.000872
     11 H                     0.139817       0.003026
     12 C                    -0.095880       0.079256
     13 H                     0.145606       0.000306
  --------------------------------------------------------
  Sum of atomic charges =     0.000000

                    Cartesian Multipole Moments
 -----------------------------------------------------------------
    Charge (ESU x 10^10)
                 0.0000
    Dipole Moment (Debye)
         X      -0.7019      Y      -1.9435      Z       1.1715
       Tot       2.3753
    Quadrupole Moments (Debye-Ang)
        XX     -37.5367     XY      -3.9693     YY     -43.0237
        XZ       1.0747     YZ       0.6229     ZZ     -40.9161

 Total job time:  43.23s(wall), 155.21s(cpu)
        *  Thank you very much for using Q-Chem.  Have a nice day.  *
