 Q-Chem 5.0, Q-Chem, Inc., Pleasanton, CA (2017)
 Q-Chem 5.0.2 for Intel X86 EM64T Linux

User input:
--------------------------------------------------------------
$molecule
0 2
C        1.5523330072    0.3737772416   -0.3186074806
C        0.7245203547   -0.8589642689   -0.0388355789
C       -0.4909236383   -0.5978229204   -0.8741633086
C       -0.9087389334    0.6749641817    0.8862959705
C       -0.5735878410    0.9211522076   -0.5868072956
N        0.8531451505    1.3885744343   -0.6577684955
H        2.6332477702    0.4278751644   -0.1967590579
H        1.1818481117   -1.8457950373   -0.0157083932
H       -1.1921336474   -1.2724344272   -1.3417660392
H       -1.6973822192    1.1291502945    1.4680765607
H       -1.2371155934    1.5585351725   -1.1679678655
C       -0.3304703623   -0.5844399236    1.0338703198
H       -0.5347580622   -1.3265485000    1.8024048276
$end

$rem
method                b3lyp
basis                 6-31g(d)
unrestricted          true
symmetry              off
sym_ignore            true
incdft                false
incfock               0
scf_convergence       8
thresh                14
jobtype               freq
scf_guess             read
scf_algorithm         diis
max_scf_cycles        100
$end

--------------------------------------------------------------

             Standard Nuclear Orientation (Angstroms)
    I     Atom           X                Y                Z
 ----------------------------------------------------------------
    1      C       1.5523330072     0.3737772416    -0.3186074806
    2      C       0.7245203547    -0.8589642689    -0.0388355789
    3      C      -0.4909236383    -0.5978229204    -0.8741633086
    4      C      -0.9087389334     0.6749641817     0.8862959705
    5      C      -0.5735878410     0.9211522076    -0.5868072956
    6      N       0.8531451505     1.3885744343    -0.6577684955
    7      H       2.6332477702     0.4278751644    -0.1967590579
    8      H       1.1818481117    -1.8457950373    -0.0157083932
    9      H      -1.1921336474    -1.2724344272    -1.3417660392
   10      H      -1.6973822192     1.1291502945     1.4680765607
   11      H      -1.2371155934     1.5585351725    -1.1679678655
   12      C      -0.3304703623    -0.5844399236     1.0338703198
   13      H      -0.5347580622    -1.3265485000     1.8024048276
 ----------------------------------------------------------------

    2    -286.8210282474      4.40E-10 Convergence criterion met
 Total energy in the final basis set = -286.82102825

                    Orbital Energies (a.u.)
 --------------------------------------------------------------

 Alpha MOs
 -- Occupied --
-14.319 -10.221 -10.220 -10.218 -10.214 -10.205 -10.187  -0.955
 -0.836  -0.738  -0.681  -0.590  -0.577  -0.536  -0.512  -0.463
 -0.427  -0.404  -0.397  -0.378  -0.340  -0.297  -0.275  -0.253
 -0.139

 Beta MOs
 -- Occupied --
-14.319 -10.224 -10.221 -10.217 -10.214 -10.194 -10.178  -0.952
 -0.830  -0.731  -0.670  -0.586  -0.566  -0.534  -0.506  -0.457
 -0.423  -0.400  -0.394  -0.376  -0.335  -0.280  -0.265  -0.250

          Ground-State Mulliken Net Atomic Charges

     Atom                 Charge (a.u.)    Spin (a.u.)
  --------------------------------------------------------
      1 C                     0.101479       0.031077
      2 C                    -0.206980      -0.009594
      3 C                    -0.133388       0.707775
      4 C                    -0.076440       0.620027
      5 C                    -0.104867      -0.066833
      6 N                    -0.332749      -0.004733
      7 H                     0.145486       0.000570
      8 H                     0.142921       0.002954
      9 H                     0.155492      -0.037053
     10 H                     0.142011      -0.031620
     11 H                     0.141091       0.005697
     12 C                    -0.123584      -0.232711
     13 H                     0.149529       0.014444
  --------------------------------------------------------
  Sum of atomic charges =    -0.000000

                    Cartesian Multipole Moments
 -----------------------------------------------------------------
    Charge (ESU x 10^10)
                -0.0000
    Dipole Moment (Debye)
         X      -0.8147      Y      -2.5462      Z       0.7912
       Tot       2.7880
    Quadrupole Moments (Debye-Ang)
        XX     -37.6141     XY      -3.3795     YY     -42.5176
        XZ       1.0592     YZ       0.5012     ZZ     -41.0109

 Frequency:      -820.57                 141.17                 374.18
 Force Cnst:      1.9148                 0.0129                 0.0968
 Red. Mass:       4.8267                 1.0993                 1.1733
 IR Intens:       98.474                 16.118                 24.057
 Frequency:       450.46                 488.52                 595.84
 Force Cnst:      0.5050                 0.5341                 0.8731
 Red. Mass:       4.2239                 3.7982                 4.1738
 IR Intens:        9.631                  3.551                  4.304
 Frequency:       716.61                 789.06                 816.89
 Force Cnst:      2.1486                 1.8847                 0.9121
 Red. Mass:       7.1015                 5.1377                 2.3200
 IR Intens:        0.381                  3.072                  2.716
 Frequency:       860.03                 876.51                 897.73
 Force Cnst:      1.0945                 1.3489                 0.8198
 Red. Mass:       2.5115                 2.9800                 1.7266
 IR Intens:        6.308                 26.913                  2.688
 Frequency:       914.06                 922.50                 944.82
 Force Cnst:      1.0213                 1.1491                 0.9972
 Red. Mass:       2.0747                 2.2918                 1.8960
 IR Intens:        5.647                  8.380                  1.497
 Frequency:       965.01                1029.65                1094.32
 Force Cnst:      0.9632                 1.1562                 1.1176
 Red. Mass:       1.7555                 1.8510                 1.5839
 IR Intens:        7.663                  3.199                  2.739
 Frequency:      1160.02                1188.34                1221.55
 Force Cnst:      1.3412                 1.8918                 1.1936
 Red. Mass:       1.6917                 2.2737                 1.3577
 IR Intens:        4.483                  3.842                  1.574
 Frequency:      1269.88                1290.61                1316.01
 Force Cnst:      1.1889                 1.3743                 1.9740
 Red. Mass:       1.2513                 1.4003                 1.9345
 IR Intens:        1.177                  3.437                 12.914
 Frequency:      1333.87                1424.21                1667.91
 Force Cnst:      1.6196                 3.1746                13.0204
 Red. Mass:       1.5450                 2.6564                 7.9439
 IR Intens:       17.227                  2.032                 19.541
 Frequency:      3173.60                3175.36                3184.07
 Force Cnst:      6.4682                 6.4770                 6.5338
 Red. Mass:       1.0900                 1.0903                 1.0938
 IR Intens:        9.430                 31.014                 21.478
 Frequency:      3193.22                3277.08                3290.58
 Force Cnst:      6.5687                 6.9242                 6.9900
 Red. Mass:       1.0934                 1.0943                 1.0957
 IR Intens:       20.173                  1.016                  0.904

 STANDARD THERMODYNAMIC QUANTITIES AT   298.15 K  AND     1.00 ATM

   This Molecule has  1 Imaginary Frequencies
   Zero point vibrational energy:       62.964 kcal/mol

   Atom    1 Element C  Has Mass   12.00000
   Atom    2 Element C  Has Mass   12.00000
   Atom    3 Element C  Has Mass   12.00000
   Atom    4 Element C  Has Mass   12.00000
   Atom    5 Element C  Has Mass   12.00000
   Atom    6 Element N  Has Mass   14.00307
   Atom    7 Element H  Has Mass    1.00783
   Atom    8 Element H  Has Mass    1.00783
   Atom    9 Element H  Has Mass    1.00783
   Atom   10 Element H  Has Mass    1.00783
   Atom   11 Element H  Has Mass    1.00783
   Atom   12 Element C  Has Mass   12.00000
   Atom   13 Element H  Has Mass    1.00783
   Molecular Mass:    92.050050 amu
   Principal axes and moments of inertia in amu*Bohr^2:
                             1           2           3
    Eigenvalues --      377.25870   459.04980   569.15979
          X               0.75486    -0.53256     0.38283
          Y               0.42744     0.84216     0.32873
          Z              -0.49747    -0.08451     0.86336
   Rotational Symmetry Number is   1
   The Molecule is an Asymmetric Top
   Translational Enthalpy:        0.889 kcal/mol
   Rotational Enthalpy:           0.889 kcal/mol
   Vibrational Enthalpy:         64.497 kcal/mol
   gas constant (RT):             0.592 kcal/mol
   Translational Entropy:        39.471  cal/mol.K
   Rotational Entropy:           26.091  cal/mol.K
   Vibrational Entropy:           7.836  cal/mol.K

   Total Enthalpy:               66.867 kcal/mol
   Total Entropy:                73.398  cal/mol.K

 Total job time:  260.75s(wall), 258.45s(cpu)
        *  Thank you very much for using Q-Chem.  Have a nice day.  *
