 Q-Chem 5.0, Q-Chem, Inc., Pleasanton, CA (2017)
 Q-Chem 5.0.2 for Intel X86 EM64T Linux

User input:
--------------------------------------------------------------
$molecule
0 2
C        1.5424034222    0.3817451887   -0.3044051204
C        0.7259481315   -0.8604389948   -0.0402630990
C       -0.4973973076   -0.6128706235   -0.8638349709
C       -0.9545188168    0.6557249853    0.8620601199
C       -0.5908653084    0.9074296190   -0.5964313227
N        0.8304513547    1.3895329384   -0.6456162564
H        2.6199608671    0.4544492194   -0.1657370091
H        1.1948266451   -1.8417576728   -0.0170266334
H       -1.1559844090   -1.2944311900   -1.3817341737
H       -1.5580866656    1.2298948886    1.5510670001
H       -1.2552816987    1.5292354829   -1.1956005611
C       -0.3612735809   -0.6048563132    1.0093260266
H       -0.5601985365   -1.3456339088    1.7804601636
$end

$rem
method                b3lyp
basis                 6-31+g(d,p)
unrestricted          true
symmetry              off
sym_ignore            true
incdft                false
incfock               0
scf_convergence       8
thresh                14
jobtype               sp
scf_guess             core
scf_guess_mix         5
scf_algorithm         diis
max_scf_cycles        100
$end

--------------------------------------------------------------

             Standard Nuclear Orientation (Angstroms)
    I     Atom           X                Y                Z
 ----------------------------------------------------------------
    1      C       1.5424034222     0.3817451887    -0.3044051204
    2      C       0.7259481315    -0.8604389948    -0.0402630990
    3      C      -0.4973973076    -0.6128706235    -0.8638349709
    4      C      -0.9545188168     0.6557249853     0.8620601199
    5      C      -0.5908653084     0.9074296190    -0.5964313227
    6      N       0.8304513547     1.3895329384    -0.6456162564
    7      H       2.6199608671     0.4544492194    -0.1657370091
    8      H       1.1948266451    -1.8417576728    -0.0170266334
    9      H      -1.1559844090    -1.2944311900    -1.3817341737
   10      H      -1.5580866656     1.2298948886     1.5510670001
   11      H      -1.2552816987     1.5292354829    -1.1956005611
   12      C      -0.3612735809    -0.6048563132     1.0093260266
   13      H      -0.5601985365    -1.3456339088     1.7804601636
 ----------------------------------------------------------------

   24    -286.8437779996      5.50E-09 Convergence criterion met
 Total energy in the final basis set = -286.84377800

                    Orbital Energies (a.u.)
 --------------------------------------------------------------

 Alpha MOs
 -- Occupied --
-14.334 -10.233 -10.231 -10.228 -10.226 -10.222 -10.199  -0.969
 -0.850  -0.750  -0.690  -0.601  -0.587  -0.546  -0.524  -0.475
 -0.435  -0.419  -0.409  -0.386  -0.352  -0.307  -0.286  -0.266
 -0.153

 Beta MOs
 -- Occupied --
-14.334 -10.236 -10.232 -10.228 -10.225 -10.214 -10.190  -0.966
 -0.845  -0.743  -0.680  -0.597  -0.578  -0.543  -0.516  -0.469
 -0.431  -0.414  -0.407  -0.384  -0.346  -0.292  -0.276  -0.262

          Ground-State Mulliken Net Atomic Charges

     Atom                 Charge (a.u.)    Spin (a.u.)
  --------------------------------------------------------
      1 C                    -0.063430       0.042295
      2 C                    -0.022273      -0.028393
      3 C                    -0.277230       0.641273
      4 C                    -0.140634       0.735380
      5 C                     0.021796      -0.124476
      6 N                    -0.208144      -0.002408
      7 H                     0.134760       0.001283
      8 H                     0.131593       0.004001
      9 H                     0.148890      -0.029124
     10 H                     0.138331      -0.028106
     11 H                     0.130608       0.008999
     12 C                    -0.134533      -0.233987
     13 H                     0.140266       0.013262
  --------------------------------------------------------
  Sum of atomic charges =    -0.000000

                    Cartesian Multipole Moments
 -----------------------------------------------------------------
    Charge (ESU x 10^10)
                -0.0000
    Dipole Moment (Debye)
         X      -0.6636      Y      -2.7455      Z       0.7861
       Tot       2.9319
    Quadrupole Moments (Debye-Ang)
        XX     -39.3158     XY      -3.8531     YY     -44.0461
        XZ       1.4645     YZ       0.7513     ZZ     -42.0707

 Total job time:  34.21s(wall), 122.35s(cpu)
        *  Thank you very much for using Q-Chem.  Have a nice day.  *
