 Q-Chem 5.0, Q-Chem, Inc., Pleasanton, CA (2017)
 Q-Chem 5.0.2 for Intel X86 EM64T Linux

User input:
--------------------------------------------------------------
$molecule
0 2
C        1.5457992283    0.3774224907   -0.3086425081
C        0.7249138119   -0.8603742445   -0.0388726522
C       -0.5045775321   -0.6125758033   -0.8533084980
C       -0.9460110504    0.6627811287    0.8696319591
C       -0.5902378376    0.9107932180   -0.5922754108
N        0.8320473775    1.3855477849   -0.6511709590
H        2.6234328709    0.4480084360   -0.1770437603
H        1.1908190780   -1.8424687306   -0.0163016944
H       -1.1425522131   -1.2915475993   -1.4001203484
H       -1.5831698292    1.2191190555    1.5416950899
H       -1.2561626157    1.5333337904   -1.1868344908
C       -0.3571729096   -0.6014339320    1.0171971211
H       -0.5571442820   -1.3405819753    1.7883103155
$end

$rem
method                b3lyp
basis                 6-31+g(d,p)
unrestricted          true
symmetry              off
sym_ignore            true
incdft                false
incfock               0
scf_convergence       8
thresh                14
jobtype               freq
scf_guess             read
scf_algorithm         diis
max_scf_cycles        100
$end

--------------------------------------------------------------

             Standard Nuclear Orientation (Angstroms)
    I     Atom           X                Y                Z
 ----------------------------------------------------------------
    1      C       1.5457992283     0.3774224907    -0.3086425081
    2      C       0.7249138119    -0.8603742445    -0.0388726522
    3      C      -0.5045775321    -0.6125758033    -0.8533084980
    4      C      -0.9460110504     0.6627811287     0.8696319591
    5      C      -0.5902378376     0.9107932180    -0.5922754108
    6      N       0.8320473775     1.3855477849    -0.6511709590
    7      H       2.6234328709     0.4480084360    -0.1770437603
    8      H       1.1908190780    -1.8424687306    -0.0163016944
    9      H      -1.1425522131    -1.2915475993    -1.4001203484
   10      H      -1.5831698292     1.2191190555     1.5416950899
   11      H      -1.2561626157     1.5333337904    -1.1868344908
   12      C      -0.3571729096    -0.6014339320     1.0171971211
   13      H      -0.5571442820    -1.3405819753     1.7883103155
 ----------------------------------------------------------------

    2    -286.8438158204      3.19E-10 Convergence criterion met
 Total energy in the final basis set = -286.84381582

                    Orbital Energies (a.u.)
 --------------------------------------------------------------

 Alpha MOs
 -- Occupied --
-14.334 -10.234 -10.231 -10.228 -10.225 -10.222 -10.199  -0.969
 -0.850  -0.750  -0.690  -0.601  -0.587  -0.546  -0.524  -0.474
 -0.436  -0.418  -0.409  -0.387  -0.351  -0.307  -0.286  -0.266
 -0.152

 Beta MOs
 -- Occupied --
-14.334 -10.236 -10.232 -10.228 -10.225 -10.214 -10.189  -0.965
 -0.844  -0.743  -0.680  -0.597  -0.577  -0.544  -0.516  -0.469
 -0.432  -0.413  -0.407  -0.385  -0.346  -0.291  -0.277  -0.262

          Ground-State Mulliken Net Atomic Charges

     Atom                 Charge (a.u.)    Spin (a.u.)
  --------------------------------------------------------
      1 C                    -0.063811       0.042469
      2 C                    -0.016692      -0.032506
      3 C                    -0.278418       0.641355
      4 C                    -0.133725       0.738278
      5 C                     0.016461      -0.123893
      6 N                    -0.207647      -0.003034
      7 H                     0.134938       0.001341
      8 H                     0.131548       0.003599
      9 H                     0.147324      -0.028087
     10 H                     0.138786      -0.030249
     11 H                     0.130425       0.008309
     12 C                    -0.139729      -0.230212
     13 H                     0.140538       0.012630
  --------------------------------------------------------
  Sum of atomic charges =    -0.000000

                    Cartesian Multipole Moments
 -----------------------------------------------------------------
    Charge (ESU x 10^10)
                -0.0000
    Dipole Moment (Debye)
         X      -0.6839      Y      -2.7630      Z       0.7513
       Tot       2.9438
    Quadrupole Moments (Debye-Ang)
        XX     -39.2280     XY      -3.9297     YY     -44.1025
        XZ       1.4193     YZ       0.7251     ZZ     -42.0501

 Frequency:      -745.47                 264.85                 350.70
 Force Cnst:      1.7906                 0.0490                 0.0765
 Red. Mass:       5.4686                 1.1849                 1.0560
 IR Intens:       59.619                 16.466                 36.416
 Frequency:       449.54                 475.62                 590.41
 Force Cnst:      0.5614                 0.5280                 0.7578
 Red. Mass:       4.7146                 3.9616                 3.6898
 IR Intens:        6.991                 10.458                  3.706
 Frequency:       716.66                 783.22                 810.03
 Force Cnst:      2.0607                 1.8175                 0.8896
 Red. Mass:       6.8100                 5.0287                 2.3011
 IR Intens:        0.647                  5.858                  5.714
 Frequency:       857.19                 873.92                 896.66
 Force Cnst:      1.2917                 1.1368                 0.8739
 Red. Mass:       2.9838                 2.5263                 1.8448
 IR Intens:        5.044                 25.457                  4.691
 Frequency:       908.72                 919.90                 939.96
 Force Cnst:      0.8876                 1.1397                 1.1136
 Red. Mass:       1.8243                 2.2860                 2.1393
 IR Intens:       10.988                  9.546                  2.760
 Frequency:       961.35                1023.66                1083.48
 Force Cnst:      0.8948                 1.0801                 1.1642
 Red. Mass:       1.6434                 1.7494                 1.6831
 IR Intens:        7.242                  6.079                  5.558
 Frequency:      1137.89                1181.67                1217.35
 Force Cnst:      1.3216                 1.7885                 1.1843
 Red. Mass:       1.7324                 2.1739                 1.3564
 IR Intens:        4.902                  5.270                  1.711
 Frequency:      1261.25                1280.57                1305.93
 Force Cnst:      1.1497                 1.3898                 2.0039
 Red. Mass:       1.2267                 1.4385                 1.9942
 IR Intens:        1.133                  3.648                 14.709
 Frequency:      1320.48                1403.13                1643.37
 Force Cnst:      1.6124                 3.0423                12.5112
 Red. Mass:       1.5695                 2.6228                 7.8628
 IR Intens:       20.265                  1.967                 26.717
 Frequency:      3161.74                3171.13                3183.59
 Force Cnst:      6.4230                 6.4571                 6.5335
 Red. Mass:       1.0905                 1.0898                 1.0941
 IR Intens:       23.055                  6.809                 16.590
 Frequency:      3190.75                3266.52                3273.64
 Force Cnst:      6.5571                 6.8821                 6.9226
 Red. Mass:       1.0931                 1.0947                 1.0964
 IR Intens:       17.796                  0.488                  0.724

 STANDARD THERMODYNAMIC QUANTITIES AT   298.15 K  AND     1.00 ATM

   This Molecule has  1 Imaginary Frequencies
   Zero point vibrational energy:       62.765 kcal/mol

   Atom    1 Element C  Has Mass   12.00000
   Atom    2 Element C  Has Mass   12.00000
   Atom    3 Element C  Has Mass   12.00000
   Atom    4 Element C  Has Mass   12.00000
   Atom    5 Element C  Has Mass   12.00000
   Atom    6 Element N  Has Mass   14.00307
   Atom    7 Element H  Has Mass    1.00783
   Atom    8 Element H  Has Mass    1.00783
   Atom    9 Element H  Has Mass    1.00783
   Atom   10 Element H  Has Mass    1.00783
   Atom   11 Element H  Has Mass    1.00783
   Atom   12 Element C  Has Mass   12.00000
   Atom   13 Element H  Has Mass    1.00783
   Molecular Mass:    92.050050 amu
   Principal axes and moments of inertia in amu*Bohr^2:
                             1           2           3
    Eigenvalues --      377.30279   457.88650   570.62584
          X               0.76244    -0.52854     0.37327
          Y               0.42873     0.84472     0.32037
          Z              -0.48464    -0.08423     0.87065
   Rotational Symmetry Number is   1
   The Molecule is an Asymmetric Top
   Translational Enthalpy:        0.889 kcal/mol
   Rotational Enthalpy:           0.889 kcal/mol
   Vibrational Enthalpy:         64.211 kcal/mol
   gas constant (RT):             0.592 kcal/mol
   Translational Entropy:        39.471  cal/mol.K
   Rotational Entropy:           26.091  cal/mol.K
   Vibrational Entropy:           6.866  cal/mol.K

   Total Enthalpy:               66.581 kcal/mol
   Total Entropy:                72.428  cal/mol.K

 Total job time:  562.72s(wall), 558.78s(cpu)
        *  Thank you very much for using Q-Chem.  Have a nice day.  *
