 Q-Chem 5.0, Q-Chem, Inc., Pleasanton, CA (2017)
 Q-Chem 5.0.2 for Intel X86 EM64T Linux

User input:
--------------------------------------------------------------
$molecule
0 2
C        1.5523330072    0.3737772416   -0.3186074806
C        0.7245203547   -0.8589642689   -0.0388355789
C       -0.4909236383   -0.5978229204   -0.8741633086
C       -0.9087389334    0.6749641817    0.8862959705
C       -0.5735878410    0.9211522076   -0.5868072956
N        0.8531451505    1.3885744343   -0.6577684955
H        2.6332477702    0.4278751644   -0.1967590579
H        1.1818481117   -1.8457950373   -0.0157083932
H       -1.1921336474   -1.2724344272   -1.3417660392
H       -1.6973822192    1.1291502945    1.4680765607
H       -1.2371155934    1.5585351725   -1.1679678655
C       -0.3304703623   -0.5844399236    1.0338703198
H       -0.5347580622   -1.3265485000    1.8024048276
$end

$rem
method                b3lyp
basis                 6-31g(d)
unrestricted          true
symmetry              off
sym_ignore            true
incdft                false
incfock               0
scf_convergence       8
thresh                14
jobtype               sp
scf_guess             core
scf_guess_mix         5
scf_algorithm         diis
max_scf_cycles        100
$end

--------------------------------------------------------------

             Standard Nuclear Orientation (Angstroms)
    I     Atom           X                Y                Z
 ----------------------------------------------------------------
    1      C       1.5523330072     0.3737772416    -0.3186074806
    2      C       0.7245203547    -0.8589642689    -0.0388355789
    3      C      -0.4909236383    -0.5978229204    -0.8741633086
    4      C      -0.9087389334     0.6749641817     0.8862959705
    5      C      -0.5735878410     0.9211522076    -0.5868072956
    6      N       0.8531451505     1.3885744343    -0.6577684955
    7      H       2.6332477702     0.4278751644    -0.1967590579
    8      H       1.1818481117    -1.8457950373    -0.0157083932
    9      H      -1.1921336474    -1.2724344272    -1.3417660392
   10      H      -1.6973822192     1.1291502945     1.4680765607
   11      H      -1.2371155934     1.5585351725    -1.1679678655
   12      C      -0.3304703623    -0.5844399236     1.0338703198
   13      H      -0.5347580622    -1.3265485000     1.8024048276
 ----------------------------------------------------------------

   24    -286.8210282474      3.90E-09 Convergence criterion met
 Total energy in the final basis set = -286.82102825

                    Orbital Energies (a.u.)
 --------------------------------------------------------------

 Alpha MOs
 -- Occupied --
-14.319 -10.221 -10.220 -10.218 -10.214 -10.205 -10.187  -0.955
 -0.836  -0.738  -0.681  -0.590  -0.577  -0.536  -0.512  -0.463
 -0.427  -0.404  -0.397  -0.378  -0.340  -0.297  -0.275  -0.253
 -0.139

 Beta MOs
 -- Occupied --
-14.319 -10.224 -10.221 -10.217 -10.214 -10.194 -10.178  -0.952
 -0.830  -0.731  -0.670  -0.586  -0.566  -0.534  -0.506  -0.457
 -0.423  -0.400  -0.394  -0.376  -0.335  -0.280  -0.265  -0.250

          Ground-State Mulliken Net Atomic Charges

     Atom                 Charge (a.u.)    Spin (a.u.)
  --------------------------------------------------------
      1 C                     0.101479       0.031079
      2 C                    -0.206980      -0.009594
      3 C                    -0.133388       0.707775
      4 C                    -0.076440       0.620027
      5 C                    -0.104867      -0.066832
      6 N                    -0.332749      -0.004735
      7 H                     0.145486       0.000569
      8 H                     0.142921       0.002954
      9 H                     0.155492      -0.037053
     10 H                     0.142011      -0.031620
     11 H                     0.141091       0.005697
     12 C                    -0.123584      -0.232711
     13 H                     0.149529       0.014444
  --------------------------------------------------------
  Sum of atomic charges =    -0.000000

                    Cartesian Multipole Moments
 -----------------------------------------------------------------
    Charge (ESU x 10^10)
                 0.0000
    Dipole Moment (Debye)
         X      -0.8147      Y      -2.5462      Z       0.7912
       Tot       2.7880
    Quadrupole Moments (Debye-Ang)
        XX     -37.6141     XY      -3.3795     YY     -42.5176
        XZ       1.0592     YZ       0.5012     ZZ     -41.0109

 Total job time:  16.51s(wall), 59.95s(cpu)
        *  Thank you very much for using Q-Chem.  Have a nice day.  *
