 Q-Chem 5.0, Q-Chem, Inc., Pleasanton, CA (2017)
 Q-Chem 5.0.2 for Intel X86 EM64T Linux

User input:
--------------------------------------------------------------
$molecule
0 2
C        1.5424034222    0.3817451887   -0.3044051204
C        0.7259481315   -0.8604389948   -0.0402630990
C       -0.4973973076   -0.6128706235   -0.8638349709
C       -0.9545188168    0.6557249853    0.8620601199
C       -0.5908653084    0.9074296190   -0.5964313227
N        0.8304513547    1.3895329384   -0.6456162564
H        2.6199608671    0.4544492194   -0.1657370091
H        1.1948266451   -1.8417576728   -0.0170266334
H       -1.1559844090   -1.2944311900   -1.3817341737
H       -1.5580866656    1.2298948886    1.5510670001
H       -1.2552816987    1.5292354829   -1.1956005611
C       -0.3612735809   -0.6048563132    1.0093260266
H       -0.5601985365   -1.3456339088    1.7804601636
$end

$rem
method                b3lyp
basis                 6-31+g(d,p)
unrestricted          true
symmetry              off
sym_ignore            true
incdft                false
incfock               0
scf_convergence       8
thresh                14
jobtype               ts
scf_guess             read
scf_algorithm         diis
max_scf_cycles        100
geom_opt_max_cycles   500
geom_opt_dmax         100
geom_opt_tol_gradient 10
geom_opt_hessian      read
$end

--------------------------------------------------------------

    2    -286.8437779996      7.31E-10 Convergence criterion met
 Total energy in the final basis set = -286.84377800
   13    -286.8438075396      3.90E-09 Convergence criterion met
 Total energy in the final basis set = -286.84380754
   13    -286.8438156829      3.44E-09 Convergence criterion met
 Total energy in the final basis set = -286.84381568

             Standard Nuclear Orientation (Angstroms)
    I     Atom           X                Y                Z
 ----------------------------------------------------------------
    1      C       1.5457992283     0.3774224907    -0.3086425081
    2      C       0.7249138119    -0.8603742445    -0.0388726522
    3      C      -0.5045775321    -0.6125758033    -0.8533084980
    4      C      -0.9460110504     0.6627811287     0.8696319591
    5      C      -0.5902378376     0.9107932180    -0.5922754108
    6      N       0.8320473775     1.3855477849    -0.6511709590
    7      H       2.6234328709     0.4480084360    -0.1770437603
    8      H       1.1908190780    -1.8424687306    -0.0163016944
    9      H      -1.1425522131    -1.2915475993    -1.4001203484
   10      H      -1.5831698292     1.2191190555     1.5416950899
   11      H      -1.2561626157     1.5333337904    -1.1868344908
   12      C      -0.3571729096    -0.6014339320     1.0171971211
   13      H      -0.5571442820    -1.3405819753     1.7883103155
 ----------------------------------------------------------------

   10    -286.8438158204      4.38E-09 Convergence criterion met
 Total energy in the final basis set = -286.84381582
 Final energy is   -286.843815820413
 **  OPTIMIZATION CONVERGED  **

                    Orbital Energies (a.u.)
 --------------------------------------------------------------

 Alpha MOs
 -- Occupied --
-14.334 -10.234 -10.231 -10.228 -10.225 -10.222 -10.199  -0.969
 -0.850  -0.750  -0.690  -0.601  -0.587  -0.546  -0.524  -0.474
 -0.436  -0.418  -0.409  -0.387  -0.351  -0.307  -0.286  -0.266
 -0.152

 Beta MOs
 -- Occupied --
-14.334 -10.236 -10.232 -10.228 -10.225 -10.214 -10.189  -0.965
 -0.844  -0.743  -0.680  -0.597  -0.577  -0.544  -0.516  -0.469
 -0.432  -0.413  -0.407  -0.385  -0.346  -0.291  -0.277  -0.262

          Ground-State Mulliken Net Atomic Charges

     Atom                 Charge (a.u.)    Spin (a.u.)
  --------------------------------------------------------
      1 C                    -0.063811       0.042473
      2 C                    -0.016692      -0.032507
      3 C                    -0.278418       0.641354
      4 C                    -0.133725       0.738275
      5 C                     0.016461      -0.123892
      6 N                    -0.207647      -0.003038
      7 H                     0.134938       0.001340
      8 H                     0.131548       0.003599
      9 H                     0.147324      -0.028087
     10 H                     0.138786      -0.030249
     11 H                     0.130425       0.008309
     12 C                    -0.139729      -0.230209
     13 H                     0.140538       0.012630
  --------------------------------------------------------
  Sum of atomic charges =     0.000000

                    Cartesian Multipole Moments
 -----------------------------------------------------------------
    Charge (ESU x 10^10)
                -0.0000
    Dipole Moment (Debye)
         X      -0.6839      Y      -2.7630      Z       0.7513
       Tot       2.9438
    Quadrupole Moments (Debye-Ang)
        XX     -39.2280     XY      -3.9297     YY     -44.1025
        XZ       1.4193     YZ       0.7251     ZZ     -42.0501

 Total job time:  72.12s(wall), 265.26s(cpu)
        *  Thank you very much for using Q-Chem.  Have a nice day.  *
