 Q-Chem 5.0, Q-Chem, Inc., Pleasanton, CA (2017)
 Q-Chem 5.0.2 for Intel X86 EM64T Linux

User input:
--------------------------------------------------------------
$molecule
0 2
C        1.5424034222    0.3817451887   -0.3044051204
C        0.7259481315   -0.8604389948   -0.0402630990
C       -0.4973973076   -0.6128706235   -0.8638349709
C       -0.9545188168    0.6557249853    0.8620601199
C       -0.5908653084    0.9074296190   -0.5964313227
N        0.8304513547    1.3895329384   -0.6456162564
H        2.6199608671    0.4544492194   -0.1657370091
H        1.1948266451   -1.8417576728   -0.0170266334
H       -1.1559844090   -1.2944311900   -1.3817341737
H       -1.5580866656    1.2298948886    1.5510670001
H       -1.2552816987    1.5292354829   -1.1956005611
C       -0.3612735809   -0.6048563132    1.0093260266
H       -0.5601985365   -1.3456339088    1.7804601636
$end

$rem
method                b3lyp
basis                 6-31+g(d,p)
unrestricted          true
symmetry              off
sym_ignore            true
incdft                false
incfock               0
scf_convergence       8
thresh                14
jobtype               freq
scf_guess             read
scf_algorithm         diis
max_scf_cycles        100
$end

--------------------------------------------------------------

             Standard Nuclear Orientation (Angstroms)
    I     Atom           X                Y                Z
 ----------------------------------------------------------------
    1      C       1.5424034222     0.3817451887    -0.3044051204
    2      C       0.7259481315    -0.8604389948    -0.0402630990
    3      C      -0.4973973076    -0.6128706235    -0.8638349709
    4      C      -0.9545188168     0.6557249853     0.8620601199
    5      C      -0.5908653084     0.9074296190    -0.5964313227
    6      N       0.8304513547     1.3895329384    -0.6456162564
    7      H       2.6199608671     0.4544492194    -0.1657370091
    8      H       1.1948266451    -1.8417576728    -0.0170266334
    9      H      -1.1559844090    -1.2944311900    -1.3817341737
   10      H      -1.5580866656     1.2298948886     1.5510670001
   11      H      -1.2552816987     1.5292354829    -1.1956005611
   12      C      -0.3612735809    -0.6048563132     1.0093260266
   13      H      -0.5601985365    -1.3456339088     1.7804601636
 ----------------------------------------------------------------

    2    -286.8437779996      1.67E-09 Convergence criterion met
 Total energy in the final basis set = -286.84377800

                    Orbital Energies (a.u.)
 --------------------------------------------------------------

 Alpha MOs
 -- Occupied --
-14.334 -10.233 -10.231 -10.228 -10.226 -10.222 -10.199  -0.969
 -0.850  -0.750  -0.690  -0.601  -0.587  -0.546  -0.524  -0.475
 -0.435  -0.419  -0.409  -0.386  -0.352  -0.307  -0.286  -0.266
 -0.153

 Beta MOs
 -- Occupied --
-14.334 -10.236 -10.232 -10.228 -10.225 -10.214 -10.190  -0.966
 -0.845  -0.743  -0.680  -0.597  -0.578  -0.543  -0.516  -0.469
 -0.431  -0.414  -0.407  -0.384  -0.346  -0.292  -0.276  -0.262

          Ground-State Mulliken Net Atomic Charges

     Atom                 Charge (a.u.)    Spin (a.u.)
  --------------------------------------------------------
      1 C                    -0.063430       0.042286
      2 C                    -0.022273      -0.028391
      3 C                    -0.277230       0.641273
      4 C                    -0.140634       0.735384
      5 C                     0.021796      -0.124478
      6 N                    -0.208144      -0.002399
      7 H                     0.134760       0.001283
      8 H                     0.131593       0.004001
      9 H                     0.148890      -0.029124
     10 H                     0.138331      -0.028107
     11 H                     0.130608       0.008999
     12 C                    -0.134533      -0.233991
     13 H                     0.140266       0.013263
  --------------------------------------------------------
  Sum of atomic charges =    -0.000000

                    Cartesian Multipole Moments
 -----------------------------------------------------------------
    Charge (ESU x 10^10)
                -0.0000
    Dipole Moment (Debye)
         X      -0.6636      Y      -2.7455      Z       0.7861
       Tot       2.9319
    Quadrupole Moments (Debye-Ang)
        XX     -39.3158     XY      -3.8531     YY     -44.0461
        XZ       1.4645     YZ       0.7513     ZZ     -42.0707

 Frequency:      -761.65                 302.87                 365.55
 Force Cnst:      1.7442                 0.0644                 0.0859
 Red. Mass:       5.1031                 1.1922                 1.0915
 IR Intens:       67.077                 13.465                 36.631
 Frequency:       453.88                 474.87                 587.92
 Force Cnst:      0.5196                 0.5212                 0.7428
 Red. Mass:       4.2813                 3.9229                 3.6473
 IR Intens:       10.802                 12.252                  3.420
 Frequency:       716.68                 783.65                 811.64
 Force Cnst:      2.1128                 1.8968                 0.8921
 Red. Mass:       6.9815                 5.2423                 2.2986
 IR Intens:        0.788                  6.648                  5.264
 Frequency:       858.88                 874.82                 899.65
 Force Cnst:      1.3143                 1.1951                 0.8831
 Red. Mass:       3.0241                 2.6505                 1.8518
 IR Intens:        6.917                 23.758                  4.356
 Frequency:       911.24                 921.15                 940.41
 Force Cnst:      0.9075                 1.0818                 1.1195
 Red. Mass:       1.8550                 2.1639                 2.1486
 IR Intens:        7.664                 12.803                  2.970
 Frequency:       962.19                1025.97                1085.67
 Force Cnst:      0.8881                 1.0840                 1.1595
 Red. Mass:       1.6282                 1.7478                 1.6697
 IR Intens:        7.109                  5.712                  5.590
 Frequency:      1139.27                1185.83                1219.04
 Force Cnst:      1.3130                 1.7954                 1.1862
 Red. Mass:       1.7170                 2.1670                 1.3548
 IR Intens:        4.820                  5.200                  1.978
 Frequency:      1264.07                1283.23                1307.07
 Force Cnst:      1.1532                 1.3927                 2.0068
 Red. Mass:       1.2249                 1.4354                 1.9937
 IR Intens:        1.040                  3.620                 15.153
 Frequency:      1322.98                1408.26                1651.15
 Force Cnst:      1.6071                 3.1164                12.7184
 Red. Mass:       1.5584                 2.6671                 7.9179
 IR Intens:       19.965                  1.974                 27.242
 Frequency:      3150.11                3164.41                3174.70
 Force Cnst:      6.3757                 6.4305                 6.4949
 Red. Mass:       1.0905                 1.0900                 1.0937
 IR Intens:       23.493                  5.651                 16.070
 Frequency:      3181.71                3258.62                3276.52
 Force Cnst:      6.5217                 6.8543                 6.9288
 Red. Mass:       1.0934                 1.0956                 1.0954
 IR Intens:       20.857                  1.141                  0.617

 STANDARD THERMODYNAMIC QUANTITIES AT   298.15 K  AND     1.00 ATM

   This Molecule has  1 Imaginary Frequencies
   Zero point vibrational energy:       62.850 kcal/mol

   Atom    1 Element C  Has Mass   12.00000
   Atom    2 Element C  Has Mass   12.00000
   Atom    3 Element C  Has Mass   12.00000
   Atom    4 Element C  Has Mass   12.00000
   Atom    5 Element C  Has Mass   12.00000
   Atom    6 Element N  Has Mass   14.00307
   Atom    7 Element H  Has Mass    1.00783
   Atom    8 Element H  Has Mass    1.00783
   Atom    9 Element H  Has Mass    1.00783
   Atom   10 Element H  Has Mass    1.00783
   Atom   11 Element H  Has Mass    1.00783
   Atom   12 Element C  Has Mass   12.00000
   Atom   13 Element H  Has Mass    1.00783
   Molecular Mass:    92.050050 amu
   Principal axes and moments of inertia in amu*Bohr^2:
                             1           2           3
    Eigenvalues --      377.18970   457.49925   569.86457
          X               0.76162    -0.53272     0.36898
          Y               0.43553     0.84242     0.31725
          Z              -0.47983    -0.08092     0.87362
   Rotational Symmetry Number is   1
   The Molecule is an Asymmetric Top
   Translational Enthalpy:        0.889 kcal/mol
   Rotational Enthalpy:           0.889 kcal/mol
   Vibrational Enthalpy:         64.251 kcal/mol
   gas constant (RT):             0.592 kcal/mol
   Translational Entropy:        39.471  cal/mol.K
   Rotational Entropy:           26.089  cal/mol.K
   Vibrational Entropy:           6.554  cal/mol.K

   Total Enthalpy:               66.621 kcal/mol
   Total Entropy:                72.114  cal/mol.K

 Total job time:  559.23s(wall), 557.19s(cpu)
        *  Thank you very much for using Q-Chem.  Have a nice day.  *
