 Q-Chem 5.0, Q-Chem, Inc., Pleasanton, CA (2017)
 Q-Chem 5.0.2 for Intel X86 EM64T Linux

User input:
--------------------------------------------------------------
$molecule
0 2
C        1.5523330072    0.3737772416   -0.3186074806
C        0.7245203547   -0.8589642689   -0.0388355789
C       -0.4909236383   -0.5978229204   -0.8741633086
C       -0.9087389334    0.6749641817    0.8862959705
C       -0.5735878410    0.9211522076   -0.5868072956
N        0.8531451505    1.3885744343   -0.6577684955
H        2.6332477702    0.4278751644   -0.1967590579
H        1.1818481117   -1.8457950373   -0.0157083932
H       -1.1921336474   -1.2724344272   -1.3417660392
H       -1.6973822192    1.1291502945    1.4680765607
H       -1.2371155934    1.5585351725   -1.1679678655
C       -0.3304703623   -0.5844399236    1.0338703198
H       -0.5347580622   -1.3265485000    1.8024048276
$end

$rem
method                b3lyp
basis                 6-31g(d)
unrestricted          true
symmetry              off
sym_ignore            true
incdft                false
incfock               0
scf_convergence       8
thresh                14
jobtype               ts
scf_guess             read
scf_algorithm         diis
max_scf_cycles        100
geom_opt_max_cycles   500
geom_opt_dmax         100
geom_opt_tol_gradient 10
geom_opt_hessian      read
$end

--------------------------------------------------------------

    2    -286.8210282474      2.86E-10 Convergence criterion met
 Total energy in the final basis set = -286.82102825
   13    -286.8209149220      5.01E-09 Convergence criterion met
 Total energy in the final basis set = -286.82091492
   13    -286.8208470419      4.00E-09 Convergence criterion met
 Total energy in the final basis set = -286.82084704
   13    -286.8208002383      3.58E-09 Convergence criterion met
 Total energy in the final basis set = -286.82080024
   13    -286.8207652380      3.33E-09 Convergence criterion met
 Total energy in the final basis set = -286.82076524
   13    -286.8207381610      3.13E-09 Convergence criterion met
 Total energy in the final basis set = -286.82073816
   13    -286.8207259516      3.10E-09 Convergence criterion met
 Total energy in the final basis set = -286.82072595
   13    -286.8207390068      3.22E-09 Convergence criterion met
 Total energy in the final basis set = -286.82073901
   13    -286.8207601338      2.85E-09 Convergence criterion met
 Total energy in the final basis set = -286.82076013
   13    -286.8207791127      3.04E-09 Convergence criterion met
 Total energy in the final basis set = -286.82077911
   13    -286.8207938663      3.30E-09 Convergence criterion met
 Total energy in the final basis set = -286.82079387
   13    -286.8208032128      3.46E-09 Convergence criterion met
 Total energy in the final basis set = -286.82080321
   13    -286.8208057777      3.43E-09 Convergence criterion met
 Total energy in the final basis set = -286.82080578

             Standard Nuclear Orientation (Angstroms)
    I     Atom           X                Y                Z
 ----------------------------------------------------------------
    1      C       1.5424034222     0.3817451887    -0.3044051204
    2      C       0.7259481315    -0.8604389948    -0.0402630990
    3      C      -0.4973973076    -0.6128706235    -0.8638349709
    4      C      -0.9545188168     0.6557249853     0.8620601199
    5      C      -0.5908653084     0.9074296190    -0.5964313227
    6      N       0.8304513547     1.3895329384    -0.6456162564
    7      H       2.6199608671     0.4544492194    -0.1657370091
    8      H       1.1948266451    -1.8417576728    -0.0170266334
    9      H      -1.1559844090    -1.2944311900    -1.3817341737
   10      H      -1.5580866656     1.2298948886     1.5510670001
   11      H      -1.2552816987     1.5292354829    -1.1956005611
   12      C      -0.3612735809    -0.6048563132     1.0093260266
   13      H      -0.5601985365    -1.3456339088     1.7804601636
 ----------------------------------------------------------------

   11    -286.8208059123      5.31E-09 Convergence criterion met
 Total energy in the final basis set = -286.82080591
 Final energy is   -286.820805912282
 **  OPTIMIZATION CONVERGED  **

                    Orbital Energies (a.u.)
 --------------------------------------------------------------

 Alpha MOs
 -- Occupied --
-14.318 -10.221 -10.220 -10.217 -10.214 -10.209 -10.186  -0.956
 -0.837  -0.739  -0.679  -0.591  -0.576  -0.536  -0.515  -0.463
 -0.425  -0.408  -0.397  -0.376  -0.341  -0.295  -0.273  -0.252
 -0.140

 Beta MOs
 -- Occupied --
-14.318 -10.224 -10.220 -10.216 -10.214 -10.200 -10.176  -0.952
 -0.832  -0.731  -0.669  -0.586  -0.567  -0.534  -0.507  -0.458
 -0.421  -0.403  -0.395  -0.374  -0.335  -0.279  -0.263  -0.248

          Ground-State Mulliken Net Atomic Charges

     Atom                 Charge (a.u.)    Spin (a.u.)
  --------------------------------------------------------
      1 C                     0.099559       0.045341
      2 C                    -0.199067       0.005023
      3 C                    -0.133053       0.603247
      4 C                    -0.077625       0.682977
      5 C                    -0.095623      -0.069529
      6 N                    -0.338668      -0.005308
      7 H                     0.144886       0.001449
      8 H                     0.142580       0.003554
      9 H                     0.158467      -0.031242
     10 H                     0.141199      -0.028696
     11 H                     0.139919       0.008212
     12 C                    -0.131376      -0.229363
     13 H                     0.148803       0.014334
  --------------------------------------------------------
  Sum of atomic charges =     0.000000

                    Cartesian Multipole Moments
 -----------------------------------------------------------------
    Charge (ESU x 10^10)
                 0.0000
    Dipole Moment (Debye)
         X      -0.6676      Y      -2.5032      Z       0.7451
       Tot       2.6957
    Quadrupole Moments (Debye-Ang)
        XX     -38.2502     XY      -3.2731     YY     -42.3710
        XZ       1.2240     YZ       0.9192     ZZ     -40.3866

 Total job time:  140.82s(wall), 528.50s(cpu)
        *  Thank you very much for using Q-Chem.  Have a nice day.  *
