 Q-Chem 5.0, Q-Chem, Inc., Pleasanton, CA (2017)
 Q-Chem 5.0.2 for Intel X86 EM64T Linux

User input:
--------------------------------------------------------------
$molecule
0 2
C        1.5424034222    0.3817451887   -0.3044051204
C        0.7259481315   -0.8604389948   -0.0402630990
C       -0.4973973076   -0.6128706235   -0.8638349709
C       -0.9545188168    0.6557249853    0.8620601199
C       -0.5908653084    0.9074296190   -0.5964313227
N        0.8304513547    1.3895329384   -0.6456162564
H        2.6199608671    0.4544492194   -0.1657370091
H        1.1948266451   -1.8417576728   -0.0170266334
H       -1.1559844090   -1.2944311900   -1.3817341737
H       -1.5580866656    1.2298948886    1.5510670001
H       -1.2552816987    1.5292354829   -1.1956005611
C       -0.3612735809   -0.6048563132    1.0093260266
H       -0.5601985365   -1.3456339088    1.7804601636
$end

$rem
method                b3lyp
basis                 6-31g(d)
unrestricted          true
symmetry              off
sym_ignore            true
incdft                false
incfock               0
scf_convergence       8
thresh                14
jobtype               sp
scf_guess             read
scf_algorithm         diis
max_scf_cycles        100
$end

--------------------------------------------------------------

             Standard Nuclear Orientation (Angstroms)
    I     Atom           X                Y                Z
 ----------------------------------------------------------------
    1      C       1.5424034222     0.3817451887    -0.3044051204
    2      C       0.7259481315    -0.8604389948    -0.0402630990
    3      C      -0.4973973076    -0.6128706235    -0.8638349709
    4      C      -0.9545188168     0.6557249853     0.8620601199
    5      C      -0.5908653084     0.9074296190    -0.5964313227
    6      N       0.8304513547     1.3895329384    -0.6456162564
    7      H       2.6199608671     0.4544492194    -0.1657370091
    8      H       1.1948266451    -1.8417576728    -0.0170266334
    9      H      -1.1559844090    -1.2944311900    -1.3817341737
   10      H      -1.5580866656     1.2298948886     1.5510670001
   11      H      -1.2552816987     1.5292354829    -1.1956005611
   12      C      -0.3612735809    -0.6048563132     1.0093260266
   13      H      -0.5601985365    -1.3456339088     1.7804601636
 ----------------------------------------------------------------

    2    -286.8208059123      2.90E-09 Convergence criterion met
 Total energy in the final basis set = -286.82080591

                    Orbital Energies (a.u.)
 --------------------------------------------------------------

 Alpha MOs
 -- Occupied --
-14.318 -10.221 -10.220 -10.217 -10.214 -10.209 -10.186  -0.956
 -0.837  -0.739  -0.679  -0.591  -0.576  -0.536  -0.515  -0.463
 -0.425  -0.408  -0.397  -0.376  -0.341  -0.295  -0.273  -0.252
 -0.140

 Beta MOs
 -- Occupied --
-14.318 -10.224 -10.220 -10.216 -10.214 -10.200 -10.176  -0.952
 -0.832  -0.731  -0.669  -0.586  -0.567  -0.534  -0.507  -0.458
 -0.421  -0.403  -0.395  -0.374  -0.335  -0.279  -0.263  -0.248

          Ground-State Mulliken Net Atomic Charges

     Atom                 Charge (a.u.)    Spin (a.u.)
  --------------------------------------------------------
      1 C                     0.099559       0.045341
      2 C                    -0.199067       0.005023
      3 C                    -0.133053       0.603248
      4 C                    -0.077625       0.682977
      5 C                    -0.095624      -0.069529
      6 N                    -0.338668      -0.005308
      7 H                     0.144886       0.001449
      8 H                     0.142580       0.003554
      9 H                     0.158467      -0.031242
     10 H                     0.141199      -0.028696
     11 H                     0.139919       0.008212
     12 C                    -0.131376      -0.229363
     13 H                     0.148803       0.014334
  --------------------------------------------------------
  Sum of atomic charges =    -0.000000

                    Cartesian Multipole Moments
 -----------------------------------------------------------------
    Charge (ESU x 10^10)
                -0.0000
    Dipole Moment (Debye)
         X      -0.6676      Y      -2.5032      Z       0.7451
       Tot       2.6957
    Quadrupole Moments (Debye-Ang)
        XX     -38.2502     XY      -3.2731     YY     -42.3710
        XZ       1.2240     YZ       0.9192     ZZ     -40.3866

 Total job time:  1.85s(wall), 6.28s(cpu)
        *  Thank you very much for using Q-Chem.  Have a nice day.  *
