 Q-Chem 5.0, Q-Chem, Inc., Pleasanton, CA (2017)
 Q-Chem 5.0.2 for Intel X86 EM64T Linux

User input:
--------------------------------------------------------------
$molecule
0 2
C        1.7735676198    0.1350505132    0.0878038119
C        1.0421577649   -0.8386349613   -0.6136452867
C       -0.3618803047   -0.3521262617   -0.7605280900
C       -1.3468850307   -0.7167652232    0.3648938411
C       -0.2674630749    1.0472879030   -0.0317410982
N        1.0985956682    1.2244069860    0.4464801005
H        2.8210631307    0.0390106201    0.3661366373
H        1.4276701454   -1.7932011312   -0.9537925776
H       -0.7610042541   -0.3949112979   -1.7819458922
H       -1.8996588884   -1.6310841757    0.5624265836
H       -0.6132879394    1.9347590990   -0.5743587520
C       -1.2483240624    0.4648441727    0.9884336031
H       -1.6645507746    0.8813637573    1.8998371188
$end

$rem
method                b3lyp
basis                 6-31+g(d,p)
unrestricted          true
symmetry              off
sym_ignore            true
incdft                false
incfock               0
scf_convergence       8
thresh                14
jobtype               sp
scf_guess             read
scf_algorithm         diis
max_scf_cycles        100
scf_final_print       1
$end

--------------------------------------------------------------

             Standard Nuclear Orientation (Angstroms)
    I     Atom           X                Y                Z
 ----------------------------------------------------------------
    1      C       1.7735676198     0.1350505132     0.0878038119
    2      C       1.0421577649    -0.8386349613    -0.6136452867
    3      C      -0.3618803047    -0.3521262617    -0.7605280900
    4      C      -1.3468850307    -0.7167652232     0.3648938411
    5      C      -0.2674630749     1.0472879030    -0.0317410982
    6      N       1.0985956682     1.2244069860     0.4464801005
    7      H       2.8210631307     0.0390106201     0.3661366373
    8      H       1.4276701454    -1.7932011312    -0.9537925776
    9      H      -0.7610042541    -0.3949112979    -1.7819458922
   10      H      -1.8996588884    -1.6310841757     0.5624265836
   11      H      -0.6132879394     1.9347590990    -0.5743587520
   12      C      -1.2483240624     0.4648441727     0.9884336031
   13      H      -1.6645507746     0.8813637573     1.8998371188
 ----------------------------------------------------------------

    2    -286.8970569483      4.33E-09 Convergence criterion met
 Total energy in the final basis set = -286.89705695

                    Orbital Energies (a.u.)
 --------------------------------------------------------------

 Alpha MOs
 -- Occupied --
-14.343 -10.228 -10.228 -10.219 -10.213 -10.211 -10.206  -0.956
 -0.848  -0.762  -0.675  -0.627  -0.563  -0.532  -0.524  -0.490
 -0.438  -0.413  -0.396  -0.364  -0.351  -0.332  -0.282  -0.264
 -0.214

 Beta MOs
 -- Occupied --
-14.333 -10.230 -10.228 -10.213 -10.210 -10.210 -10.205  -0.944
 -0.842  -0.745  -0.675  -0.619  -0.558  -0.529  -0.520  -0.483
 -0.430  -0.406  -0.391  -0.353  -0.344  -0.311  -0.275  -0.258

          Ground-State Mulliken Net Atomic Charges

     Atom                 Charge (a.u.)    Spin (a.u.)
  --------------------------------------------------------
      1 C                    -0.108881      -0.255780
      2 C                    -0.072801       0.756195
      3 C                    -0.012766      -0.075382
      4 C                    -0.156060       0.024560
      5 C                    -0.216742      -0.060719
      6 N                    -0.175258       0.519367
      7 H                     0.130676       0.007366
      8 H                     0.136073      -0.032459
      9 H                     0.146420       0.028077
     10 H                     0.127741       0.006539
     11 H                     0.148715       0.028036
     12 C                    -0.078189       0.050886
     13 H                     0.131072       0.003315
  --------------------------------------------------------
  Sum of atomic charges =    -0.000000

                    Cartesian Multipole Moments
 -----------------------------------------------------------------
    Charge (ESU x 10^10)
                -0.0000
    Dipole Moment (Debye)
         X      -0.9072      Y      -1.8895      Z      -1.0646
       Tot       2.3508
    Quadrupole Moments (Debye-Ang)
        XX     -40.2522     XY      -3.4620     YY     -42.5505
        XZ      -1.7257     YZ      -0.6333     ZZ     -41.6055

 Total job time:  4.21s(wall), 11.50s(cpu)
        *  Thank you very much for using Q-Chem.  Have a nice day.  *
