 Q-Chem 5.0, Q-Chem, Inc., Pleasanton, CA (2017)
 Q-Chem 5.0.2 for Intel X86 EM64T Linux

User input:
--------------------------------------------------------------
$molecule
0 2
C        2.0062347227    0.0728435582   -0.2298844129
C        1.0429644008   -0.8580739509   -0.3651711056
C       -0.2666404067   -0.1201373318   -0.5202776795
C       -1.3637578193   -0.5315002553    0.4461408463
C        0.2209715968    1.3063105951   -0.4030182228
N        1.4982530840    1.4069750243   -0.2592850674
H        3.0722577656   -0.0749282087   -0.1081338999
H        1.1574841112   -1.9342995297   -0.3750851034
H       -0.6435339301   -0.2688891834   -1.5486831928
H       -1.6942803487   -1.5740944543    0.3540714691
H       -0.4238931940    2.1791335456   -0.4555685640
C       -1.9214570523    0.2407012347    1.3514957612
H       -2.6846029299    0.1559589563    2.1133991717
$end

$rem
method                b3lyp
basis                 6-31+g(d,p)
unrestricted          true
symmetry              off
sym_ignore            true
incdft                false
incfock               0
scf_convergence       8
thresh                14
jobtype               sp
scf_guess             core
scf_guess_mix         5
scf_algorithm         diis
max_scf_cycles        100
$end

--------------------------------------------------------------

             Standard Nuclear Orientation (Angstroms)
    I     Atom           X                Y                Z
 ----------------------------------------------------------------
    1      C       2.0062347227     0.0728435582    -0.2298844129
    2      C       1.0429644008    -0.8580739509    -0.3651711056
    3      C      -0.2666404067    -0.1201373318    -0.5202776795
    4      C      -1.3637578193    -0.5315002553     0.4461408463
    5      C       0.2209715968     1.3063105951    -0.4030182228
    6      N       1.4982530840     1.4069750243    -0.2592850674
    7      H       3.0722577656    -0.0749282087    -0.1081338999
    8      H       1.1574841112    -1.9342995297    -0.3750851034
    9      H      -0.6435339301    -0.2688891834    -1.5486831928
   10      H      -1.6942803487    -1.5740944543     0.3540714691
   11      H      -0.4238931940     2.1791335456    -0.4555685640
   12      C      -1.9214570523     0.2407012347     1.3514957612
   13      H      -2.6846029299     0.1559589563     2.1133991717
 ----------------------------------------------------------------

   22    -286.8687570779      3.07E-09 Convergence criterion met
 Total energy in the final basis set = -286.86875708

                    Orbital Energies (a.u.)
 --------------------------------------------------------------

 Alpha MOs
 -- Occupied --
-14.343 -10.237 -10.228 -10.227 -10.224 -10.222 -10.204  -0.961
 -0.821  -0.761  -0.721  -0.609  -0.569  -0.555  -0.514  -0.480
 -0.455  -0.424  -0.402  -0.390  -0.355  -0.290  -0.279  -0.258
 -0.243

 Beta MOs
 -- Occupied --
-14.343 -10.237 -10.227 -10.226 -10.222 -10.212 -10.204  -0.960
 -0.814  -0.755  -0.712  -0.600  -0.566  -0.549  -0.510  -0.470
 -0.449  -0.421  -0.400  -0.389  -0.354  -0.282  -0.275  -0.251

          Ground-State Mulliken Net Atomic Charges

     Atom                 Charge (a.u.)    Spin (a.u.)
  --------------------------------------------------------
      1 C                    -0.138013      -0.004963
      2 C                    -0.127452       0.010399
      3 C                     0.069074       0.081906
      4 C                    -0.086585      -0.329101
      5 C                    -0.168496      -0.045846
      6 N                    -0.195417       0.005530
      7 H                     0.132256      -0.000449
      8 H                     0.136178      -0.000011
      9 H                     0.183150      -0.004417
     10 H                     0.143158       0.080167
     11 H                     0.143199       0.000220
     12 C                    -0.246588       1.198751
     13 H                     0.155538       0.007813
  --------------------------------------------------------
  Sum of atomic charges =     0.000000

                    Cartesian Multipole Moments
 -----------------------------------------------------------------
    Charge (ESU x 10^10)
                -0.0000
    Dipole Moment (Debye)
         X      -1.8952      Y      -2.3455      Z      -0.3989
       Tot       3.0417
    Quadrupole Moments (Debye-Ang)
        XX     -40.9770     XY      -3.7615     YY     -43.3697
        XZ      -0.9694     YZ       0.0730     ZZ     -41.9114

 Total job time:  34.84s(wall), 109.95s(cpu)
        *  Thank you very much for using Q-Chem.  Have a nice day.  *
