 Q-Chem 5.0, Q-Chem, Inc., Pleasanton, CA (2017)
 Q-Chem 5.0.2 for Intel X86 EM64T Linux

User input:
--------------------------------------------------------------
$molecule
0 2
C        1.6431615052    0.2517491696   -0.3059414860
C        1.0642648192   -0.9748675504   -0.5728031175
C       -0.3066759090   -1.3734716899   -0.3792227773
C       -1.3200699932   -0.6068531553    0.1139958302
C       -0.1285830175    1.5922743677    0.5529902592
N        1.1635891900    1.4161125357    0.1896452481
H        2.7089841228    0.3145038152   -0.5365461817
H        1.7314644331   -1.7312675428   -0.9791197587
H       -0.5470703140   -2.3970228370   -0.6597627719
H       -2.3016484929   -1.0696280903    0.1942532368
H       -0.3133240485    2.6018058732    0.9268356399
C       -1.2359678611    0.7654835267    0.5452559651
H       -2.1581244339    1.2111815774    0.9104199134
****
C        1.9553150283    0.1927443201   -0.1348745785
C        1.0116674714   -0.7638033898   -0.1513483084
C       -0.2832211010   -0.1070998783   -0.5489908083
C       -1.4591493841   -0.2712113001    0.3975310201
C        0.1899300164    1.3293540254   -0.6899543791
N        1.4476920207    1.4870597279   -0.4677070660
H        3.0102382545    0.0955894968    0.0943232665
H        1.1265014033   -1.8175129082    0.0670329238
H       -0.5970443572   -0.4547184246   -1.5503060745
H       -2.3895262974    0.2110902050    0.0696705053
H       -0.4557766311    2.1617497334   -0.9624104105
C       -1.4301983589   -0.9176402606    1.5399988378
H       -2.1264280650   -1.1456013469    2.3370350717
$end

$rem
method                b3lyp
basis                 6-31g(d)
unrestricted          true
symmetry              off
sym_ignore            true
incdft                false
incfock               0
scf_convergence       8
thresh                14
jobtype               fsm
scf_guess             core
scf_guess_mix         5
scf_algorithm         diis
max_scf_cycles        100
fsm_nnode             21
fsm_ngrad             6
fsm_mode              2
fsm_opt_mode          2
$end

--------------------------------------------------------------

   23    -286.9243316368      3.05E-09 Convergence criterion met
 Total energy in the final basis set = -286.92433164
   22    -286.8443328923      5.44E-09 Convergence criterion met
 Total energy in the final basis set = -286.84433289
   24    -286.9170674179      5.58E-09 Convergence criterion met
 Total energy in the final basis set = -286.91706742
   23    -286.9205642248      8.02E-09 Convergence criterion met
 Total energy in the final basis set = -286.92056422
   21    -286.8389603738      7.37E-09 Convergence criterion met
 Total energy in the final basis set = -286.83896037
   22    -286.8404541323      6.94E-09 Convergence criterion met
 Total energy in the final basis set = -286.84045413
   24    -286.9090458779      6.88E-09 Convergence criterion met
 Total energy in the final basis set = -286.90904588
   24    -286.9144882644      4.58E-09 Convergence criterion met
 Total energy in the final basis set = -286.78205678
   25    -286.7810012295      3.25E-09 Convergence criterion met
 Total energy in the final basis set = -286.78100123
   25    -286.7820082636      3.20E-09 Convergence criterion met
 Total energy in the final basis set = -286.78200826
   25    -286.7810523006      3.27E-09 Convergence criterion met
 Total energy in the final basis set = -286.78105230
   25    -286.7819658098      3.20E-09 Convergence criterion met
 Total energy in the final basis set = -286.78196581
   25    -286.7811000349      3.32E-09 Convergence criterion met
 Total energy in the final basis set = -286.78110003
   25    -286.7819106916      3.19E-09 Convergence criterion met
 Total energy in the final basis set = -286.78191069
   25    -286.7811628847      3.35E-09 Convergence criterion met
 Total energy in the final basis set = -286.78116288

                    Orbital Energies (a.u.)
 --------------------------------------------------------------

 Alpha MOs
 -- Occupied --
-14.330 -10.247 -10.218 -10.212 -10.208 -10.204 -10.196  -0.946
 -0.814  -0.756  -0.675  -0.615  -0.549  -0.532  -0.512  -0.472
 -0.426  -0.410  -0.385  -0.370  -0.353  -0.285  -0.266  -0.230
 -0.205

 Beta MOs
 -- Occupied --
-14.324 -10.250 -10.217 -10.214 -10.205 -10.196 -10.193  -0.939
 -0.805  -0.750  -0.670  -0.606  -0.544  -0.526  -0.507  -0.466
 -0.421  -0.402  -0.383  -0.362  -0.344  -0.279  -0.245  -0.217

          Ground-State Mulliken Net Atomic Charges

     Atom                 Charge (a.u.)    Spin (a.u.)
  --------------------------------------------------------
      1 C                     0.022782      -0.126090
      2 C                    -0.110307       0.243444
      3 C                    -0.215303       0.024069
      4 C                    -0.080962      -0.147538
      5 C                    -0.002916      -0.196952
      6 N                    -0.335229       0.312774
      7 H                     0.140769       0.004873
      8 H                     0.145344      -0.010051
      9 H                     0.149566       0.019969
     10 H                     0.144941       0.058999
     11 H                     0.178813       0.016673
     12 C                    -0.196320       0.790363
     13 H                     0.158823       0.009468
  --------------------------------------------------------
  Sum of atomic charges =    -0.000000

                    Cartesian Multipole Moments
 -----------------------------------------------------------------
    Charge (ESU x 10^10)
                -0.0000
    Dipole Moment (Debye)
         X      -1.4911      Y      -1.3185      Z      -0.7352
       Tot       2.1219
    Quadrupole Moments (Debye-Ang)
        XX     -37.0527     XY      -3.8500     YY     -42.1280
        XZ      -0.9544     YZ       1.6107     ZZ     -40.6070

             Standard Nuclear Orientation (Angstroms)
    I     Atom           X                Y                Z
 ----------------------------------------------------------------
    1      C       1.8690954104     0.1786068315    -0.0579114029
    2      C       1.1101211323    -0.8839581598    -0.4169549550
    3      C      -0.3006225739    -0.4768976705    -0.7001225457
    4      C      -1.4336271719    -0.5912996406     0.2897930971
    5      C      -0.0562397740     1.1823942423    -0.2425968851
    6      N       1.1888335896     1.3874852843     0.0540422510
    7      H       2.9406798539     0.1804647046     0.1177107617
    8      H       1.5219187670    -1.8667248950    -0.6333966838
    9      H      -0.5943251320    -0.8205311378    -1.7073141071
   10      H      -2.3827320807    -1.0340214231    -0.0112764610
   11      H      -0.8015606891     1.9792901976    -0.3039268526
   12      C      -1.2796626992     0.2119906840     1.3342678951
   13      H      -1.8332629253     0.5279543795     2.2067964667
 ----------------------------------------------------------------

 Total job time:  1827.50s(wall), 5911.79s(cpu)
        *  Thank you very much for using Q-Chem.  Have a nice day.  *
