 Q-Chem 5.0, Q-Chem, Inc., Pleasanton, CA (2017)
 Q-Chem 5.0.2 for Intel X86 EM64T Linux

User input:
--------------------------------------------------------------
$molecule
0 2
C        1.9732243390    0.0922085647   -0.2126333279
C        1.0313796701   -0.8530005666   -0.3828388983
C       -0.2882996940   -0.1366183240   -0.5685865905
C       -1.3601244634   -0.5386821067    0.4289376720
C        0.1770514436    1.2980211546   -0.4598737882
N        1.4454572383    1.4208633521   -0.2691229296
H        3.0336109286   -0.0361298935   -0.0400762209
H        1.1615693849   -1.9259736793   -0.3809719807
H       -0.6728382285   -0.3137595416   -1.5892902164
H       -1.7548315058   -1.5559383413    0.3112867649
H       -0.4799802382    2.1593859419   -0.5413258232
C       -1.8065050820    0.2183395070    1.4087222768
H       -2.5110980832    0.1460373423    2.2248836393
$end

$rem
method                b3lyp
basis                 6-31+g(d,p)
unrestricted          true
symmetry              off
sym_ignore            true
incdft                false
incfock               0
scf_convergence       8
thresh                14
jobtype               opt
scf_guess             read
scf_algorithm         diis
max_scf_cycles        100
geom_opt_max_cycles   300
$end

--------------------------------------------------------------

    2    -286.8685146149      8.57E-10 Convergence criterion met
 Total energy in the final basis set = -286.86851461
   13    -286.8686452944      4.98E-09 Convergence criterion met
 Total energy in the final basis set = -286.86864529
   13    -286.8687229577      6.81E-09 Convergence criterion met
 Total energy in the final basis set = -286.86872296
   13    -286.8687420365      3.74E-09 Convergence criterion met
 Total energy in the final basis set = -286.86874204
   12    -286.8687465926      7.65E-09 Convergence criterion met
 Total energy in the final basis set = -286.86874659
   10    -286.8687476740      9.19E-09 Convergence criterion met
 Total energy in the final basis set = -286.86874767

             Standard Nuclear Orientation (Angstroms)
    I     Atom           X                Y                Z
 ----------------------------------------------------------------
    1      C       1.9976881361     0.0870376930    -0.2659038664
    2      C       1.0410332776    -0.8536020140    -0.3788583704
    3      C      -0.2774701081    -0.1288691734    -0.5212297000
    4      C      -1.3562509638    -0.5419953048     0.4650906507
    5      C       0.1987991508     1.3029543382    -0.4230316061
    6      N       1.4770588886     1.4163028316    -0.2988385185
    7      H       3.0667516520    -0.0499788836    -0.1586048125
    8      H       1.1651846419    -1.9288890033    -0.3811785420
    9      H      -0.6680589733    -0.2897767160    -1.5425081076
   10      H      -1.6774810785    -1.5886761871     0.3882899451
   11      H      -0.4547056739     2.1694743163    -0.4736991672
   12      C      -1.9070021306     0.2328943068     1.3723263424
   13      H      -2.6569311094     0.1478772060     2.1472563298
 ----------------------------------------------------------------

   10    -286.8687478466      4.56E-09 Convergence criterion met
 Total energy in the final basis set = -286.86874785
 Final energy is   -286.868747846578
 **  OPTIMIZATION CONVERGED  **

                    Orbital Energies (a.u.)
 --------------------------------------------------------------

 Alpha MOs
 -- Occupied --
-14.343 -10.237 -10.228 -10.227 -10.224 -10.222 -10.204  -0.960
 -0.821  -0.761  -0.721  -0.609  -0.569  -0.555  -0.514  -0.480
 -0.455  -0.424  -0.402  -0.390  -0.355  -0.290  -0.279  -0.258
 -0.243

 Beta MOs
 -- Occupied --
-14.343 -10.237 -10.227 -10.226 -10.222 -10.212 -10.204  -0.960
 -0.814  -0.755  -0.712  -0.600  -0.566  -0.549  -0.510  -0.470
 -0.449  -0.421  -0.400  -0.389  -0.354  -0.282  -0.275  -0.251

          Ground-State Mulliken Net Atomic Charges

     Atom                 Charge (a.u.)    Spin (a.u.)
  --------------------------------------------------------
      1 C                    -0.137866      -0.004991
      2 C                    -0.128120       0.010456
      3 C                     0.070178       0.081888
      4 C                    -0.087101      -0.328936
      5 C                    -0.168487      -0.045974
      6 N                    -0.195417       0.005565
      7 H                     0.132266      -0.000447
      8 H                     0.136191      -0.000014
      9 H                     0.183121      -0.004409
     10 H                     0.143175       0.080139
     11 H                     0.143205       0.000226
     12 C                    -0.246682       1.198696
     13 H                     0.155538       0.007800
  --------------------------------------------------------
  Sum of atomic charges =     0.000000

                    Cartesian Multipole Moments
 -----------------------------------------------------------------
    Charge (ESU x 10^10)
                -0.0000
    Dipole Moment (Debye)
         X      -1.8775      Y      -2.3659      Z      -0.3497
       Tot       3.0405
    Quadrupole Moments (Debye-Ang)
        XX     -40.9296     XY      -3.7332     YY     -43.4256
        XZ      -0.9420     YZ       0.1425     ZZ     -41.8739

 Total job time:  132.50s(wall), 477.50s(cpu)
        *  Thank you very much for using Q-Chem.  Have a nice day.  *
