 Q-Chem 5.0, Q-Chem, Inc., Pleasanton, CA (2017)
 Q-Chem 5.0.2 for Intel X86 EM64T Linux

User input:
--------------------------------------------------------------
$molecule
0 2
C        1.8387484605    0.1061605412   -0.0238752880
C        1.0290867482   -0.8709312531   -0.5129707680
C       -0.3295072895   -0.2621781405   -0.7313797560
C       -1.3388556814   -0.6512145835    0.3344155702
C       -0.0468324088    1.1740861526   -0.2605128039
N        1.2112522180    1.3498230991    0.1134465148
H        2.8807938063    0.0121545704    0.2607178898
H        1.2840674759   -1.9106136041   -0.6750337088
H       -0.6952687597   -0.3504767565   -1.7646578091
H       -1.8339269616   -1.6230806353    0.3839034728
H       -0.6834110015    2.0252928016   -0.4819054057
C       -1.4279535968    0.3577801211    1.1836011498
H       -1.9395773024    0.6179510840    2.1033615206
$end

$rem
method                b3lyp
basis                 6-31+g(d,p)
unrestricted          true
symmetry              off
sym_ignore            true
incdft                false
incfock               0
scf_convergence       8
thresh                14
jobtype               rpath
scf_guess             core
scf_guess_mix         5
scf_algorithm         diis
max_scf_cycles        100
rpath_direction       1
rpath_tol_displacement 1000
rpath_max_cycles      50
geom_opt_max_cycles   300
geom_opt_hessian      read
$end

--------------------------------------------------------------

   23    -286.8520214090      5.77E-09 Convergence criterion met
 Total energy in the final basis set = -286.85202141
   23    -286.8535882382      9.26E-09 Convergence criterion met
 Total energy in the final basis set = -286.85358824
   23    -286.8534924630      8.83E-09 Convergence criterion met
 Total energy in the final basis set = -286.85349246
   23    -286.8535932868      9.18E-09 Convergence criterion met
 Total energy in the final basis set = -286.85359329
   23    -286.8586484167      5.11E-09 Convergence criterion met
 Total energy in the final basis set = -286.85864842
   23    -286.8586135236      6.01E-09 Convergence criterion met
 Total energy in the final basis set = -286.85861352
   23    -286.8586560324      5.26E-09 Convergence criterion met
 Total energy in the final basis set = -286.85865603
   22    -286.8660042102      7.31E-09 Convergence criterion met
 Total energy in the final basis set = -286.86837751
   22    -286.8620183035      4.39E-09 Convergence criterion met
 Total energy in the final basis set = -286.86201830
   22    -286.8683813022      2.94E-09 Convergence criterion met
 Total energy in the final basis set = -286.86838130
   22    -286.8683808134      2.94E-09 Convergence criterion met
 Total energy in the final basis set = -286.86838081
   22    -286.8683821118      2.94E-09 Convergence criterion met
 Total energy in the final basis set = -286.86838211
   22    -286.8683954460      2.85E-09 Convergence criterion met
 Total energy in the final basis set = -286.86839545
   21    -286.8664011469      9.80E-09 Convergence criterion met
 Total energy in the final basis set = -286.86640115
   22    -286.8685146148      2.94E-09 Convergence criterion met
 Total energy in the final basis set = -286.86851461

                    Orbital Energies (a.u.)
 --------------------------------------------------------------

 Alpha MOs
 -- Occupied --
-14.343 -10.236 -10.227 -10.227 -10.224 -10.221 -10.204  -0.960
 -0.820  -0.760  -0.720  -0.609  -0.568  -0.555  -0.516  -0.481
 -0.453  -0.422  -0.401  -0.391  -0.355  -0.290  -0.279  -0.258
 -0.242

 Beta MOs
 -- Occupied --
-14.343 -10.236 -10.226 -10.226 -10.221 -10.212 -10.204  -0.960
 -0.814  -0.755  -0.711  -0.600  -0.565  -0.549  -0.511  -0.471
 -0.447  -0.421  -0.398  -0.390  -0.353  -0.281  -0.276  -0.250

          Ground-State Mulliken Net Atomic Charges

     Atom                 Charge (a.u.)    Spin (a.u.)
  --------------------------------------------------------
      1 C                    -0.116711      -0.007632
      2 C                    -0.154083       0.015253
      3 C                     0.084589       0.076849
      4 C                    -0.093810      -0.316748
      5 C                    -0.161065      -0.048376
      6 N                    -0.197619       0.009030
      7 H                     0.132123      -0.000450
      8 H                     0.135992      -0.000073
      9 H                     0.177433      -0.003800
     10 H                     0.142877       0.079393
     11 H                     0.142851       0.000469
     12 C                    -0.248031       1.189041
     13 H                     0.155454       0.007043
  --------------------------------------------------------
  Sum of atomic charges =    -0.000000

                    Cartesian Multipole Moments
 -----------------------------------------------------------------
    Charge (ESU x 10^10)
                -0.0000
    Dipole Moment (Debye)
         X      -1.8799      Y      -2.3571      Z      -0.3757
       Tot       3.0383
    Quadrupole Moments (Debye-Ang)
        XX     -40.9533     XY      -3.6337     YY     -43.5484
        XZ      -0.7245     YZ       0.0725     ZZ     -41.5196

             Standard Nuclear Orientation (Angstroms)
    I     Atom           X                Y                Z
 ----------------------------------------------------------------
    1      C       1.8387484605     0.1061605412    -0.0238752880
    2      C       1.0290867482    -0.8709312531    -0.5129707680
    3      C      -0.3295072895    -0.2621781405    -0.7313797560
    4      C      -1.3388556814    -0.6512145835     0.3344155702
    5      C      -0.0468324088     1.1740861526    -0.2605128039
    6      N       1.2112522180     1.3498230991     0.1134465148
    7      H       2.8807938063     0.0121545704     0.2607178898
    8      H       1.2840674759    -1.9106136041    -0.6750337088
    9      H      -0.6952687597    -0.3504767565    -1.7646578091
   10      H      -1.8339269616    -1.6230806353     0.3839034728
   11      H      -0.6834110015     2.0252928016    -0.4819054057
   12      C      -1.4279535968     0.3577801211     1.1836011498
   13      H      -1.9395773024     0.6179510840     2.1033615206
 ----------------------------------------------------------------

 Total job time:  13187.10s(wall), 40773.17s(cpu)
        *  Thank you very much for using Q-Chem.  Have a nice day.  *
