 Q-Chem 5.0, Q-Chem, Inc., Pleasanton, CA (2017)
 Q-Chem 5.0.2 for Intel X86 EM64T Linux

User input:
--------------------------------------------------------------
$molecule
0 2
C        1.6431329238    0.2517776087   -0.3059571969
C        1.0642442768   -0.9748677233   -0.5728345177
C       -0.3068272871   -1.3733568129   -0.3797523760
C       -1.3200475464   -0.6066957568    0.1137917984
C       -0.1287348719    1.5924820701    0.5524193761
N        1.1636096499    1.4160364070    0.1897144410
H        2.7090460581    0.3142418390   -0.5362642282
H        1.7316775731   -1.7312655204   -0.9787915224
H       -0.5471643950   -2.3969706960   -0.6599756655
H       -2.3015167042   -1.0696662860    0.1946813900
H       -0.3134121442    2.6018633285    0.9267050488
C       -1.2359467621    0.7655315592    0.5453335050
H       -2.1580607705    1.2108899828    0.9109299469
$end

$rem
method                b3lyp
basis                 6-31g(d)
unrestricted          true
symmetry              off
sym_ignore            true
incdft                false
incfock               0
scf_convergence       8
thresh                14
jobtype               opt
scf_guess             core
scf_guess_mix         5
scf_algorithm         diis
max_scf_cycles        100
geom_opt_max_cycles   300
$end

--------------------------------------------------------------

   23    -286.9243314289      3.14E-09 Convergence criterion met
 Total energy in the final basis set = -286.92433143

             Standard Nuclear Orientation (Angstroms)
    I     Atom           X                Y                Z
 ----------------------------------------------------------------
    1      C       1.6431615052     0.2517491696    -0.3059414860
    2      C       1.0642648192    -0.9748675504    -0.5728031175
    3      C      -0.3066759090    -1.3734716899    -0.3792227773
    4      C      -1.3200699932    -0.6068531553     0.1139958302
    5      C      -0.1285830175     1.5922743677     0.5529902592
    6      N       1.1635891900     1.4161125357     0.1896452481
    7      H       2.7089841228     0.3145038152    -0.5365461817
    8      H       1.7314644331    -1.7312675428    -0.9791197587
    9      H      -0.5470703140    -2.3970228370    -0.6597627719
   10      H      -2.3016484929    -1.0696280903     0.1942532368
   11      H      -0.3133240485     2.6018058732     0.9268356399
   12      C      -1.2359678611     0.7654835267     0.5452559651
   13      H      -2.1581244339     1.2111815774     0.9104199134
 ----------------------------------------------------------------

   18    -286.9243316368      2.92E-09 Convergence criterion met
 Total energy in the final basis set = -286.92433164
 Final energy is   -286.924331636841
 **  OPTIMIZATION CONVERGED  **

                    Orbital Energies (a.u.)
 --------------------------------------------------------------

 Alpha MOs
 -- Occupied --
-14.322 -10.232 -10.232 -10.212 -10.211 -10.201 -10.201  -0.922
 -0.818  -0.784  -0.693  -0.667  -0.551  -0.537  -0.518  -0.449
 -0.439  -0.414  -0.394  -0.386  -0.349  -0.322  -0.299  -0.251
 -0.162

 Beta MOs
 -- Occupied --
-14.314 -10.233 -10.233 -10.210 -10.210 -10.196 -10.196  -0.911
 -0.809  -0.777  -0.681  -0.665  -0.546  -0.534  -0.514  -0.447
 -0.438  -0.411  -0.383  -0.373  -0.348  -0.295  -0.276  -0.241

          Ground-State Mulliken Net Atomic Charges

     Atom                 Charge (a.u.)    Spin (a.u.)
  --------------------------------------------------------
      1 C                     0.036091      -0.113273
      2 C                    -0.131850       0.348135
      3 C                    -0.111126       0.092371
      4 C                    -0.111615       0.095156
      5 C                     0.035677      -0.111933
      6 N                    -0.423578       0.386824
      7 H                     0.142523       0.003434
      8 H                     0.134373      -0.018387
      9 H                     0.142004      -0.006572
     10 H                     0.141950      -0.006704
     11 H                     0.142586       0.003369
     12 C                    -0.131423       0.345861
     13 H                     0.134388      -0.018280
  --------------------------------------------------------
  Sum of atomic charges =     0.000000

                    Cartesian Multipole Moments
 -----------------------------------------------------------------
    Charge (ESU x 10^10)
                -0.0000
    Dipole Moment (Debye)
         X      -1.4178      Y      -1.7249      Z      -0.2319
       Tot       2.2448
    Quadrupole Moments (Debye-Ang)
        XX     -37.9400     XY      -3.3126     YY     -39.8927
        XZ      -2.3700     YZ       1.9239     ZZ     -42.1681

 Total job time:  39.08s(wall), 117.51s(cpu)
        *  Thank you very much for using Q-Chem.  Have a nice day.  *
