 Q-Chem 5.0, Q-Chem, Inc., Pleasanton, CA (2017)
 Q-Chem 5.0.2 for Intel X86 EM64T Linux

User input:
--------------------------------------------------------------
$molecule
0 2
C        1.9550360137    0.1928947525   -0.1344681595
C        1.0113083663   -0.7634496771   -0.1507273844
C       -0.2837932846   -0.1068774306   -0.5495581619
C       -1.4592563888   -0.2721557326    0.3974660946
C        0.1899544141    1.3297561197   -0.6897261477
N        1.4476920322    1.4867967524   -0.4665456831
H        3.0100924452    0.0950203296    0.0938797715
H        1.1279191010   -1.8178094690    0.0637903912
H       -0.5960005457   -0.4560802321   -1.5505976366
H       -2.3901635089    0.2089891225    0.0693009476
H       -0.4552305139    2.1626186879   -0.9620058957
C       -1.4300916846   -0.9149317227    1.5418322029
H       -2.1274664460   -1.1447715005    2.3373596610
$end

$rem
method                b3lyp
basis                 6-31g(d)
unrestricted          true
symmetry              off
sym_ignore            true
incdft                false
incfock               0
scf_convergence       8
thresh                14
jobtype               opt
scf_guess             core
scf_guess_mix         5
scf_algorithm         diis
max_scf_cycles        100
geom_opt_max_cycles   300
$end

--------------------------------------------------------------

   22    -286.8443304897      5.45E-09 Convergence criterion met
 Total energy in the final basis set = -286.84433049
   17    -286.8443323311      3.22E-09 Convergence criterion met
 Total energy in the final basis set = -286.84433233

             Standard Nuclear Orientation (Angstroms)
    I     Atom           X                Y                Z
 ----------------------------------------------------------------
    1      C       1.9553150283     0.1927443201    -0.1348745785
    2      C       1.0116674714    -0.7638033898    -0.1513483084
    3      C      -0.2832211010    -0.1070998783    -0.5489908083
    4      C      -1.4591493841    -0.2712113001     0.3975310201
    5      C       0.1899300164     1.3293540254    -0.6899543791
    6      N       1.4476920207     1.4870597279    -0.4677070660
    7      H       3.0102382545     0.0955894968     0.0943232665
    8      H       1.1265014033    -1.8175129082     0.0670329238
    9      H      -0.5970443572    -0.4547184246    -1.5503060745
   10      H      -2.3895262974     0.2110902050     0.0696705053
   11      H      -0.4557766311     2.1617497334    -0.9624104105
   12      C      -1.4301983589    -0.9176402606     1.5399988378
   13      H      -2.1264280650    -1.1456013469     2.3370350717
 ----------------------------------------------------------------

   17    -286.8443327897      3.26E-09 Convergence criterion met
 Total energy in the final basis set = -286.84433279
 Final energy is   -286.844332789723
 **  OPTIMIZATION CONVERGED  **

                    Orbital Energies (a.u.)
 --------------------------------------------------------------

 Alpha MOs
 -- Occupied --
-14.329 -10.228 -10.216 -10.213 -10.210 -10.209 -10.190  -0.948
 -0.809  -0.745  -0.713  -0.598  -0.555  -0.544  -0.502  -0.479
 -0.442  -0.414  -0.393  -0.369  -0.344  -0.290  -0.257  -0.245
 -0.234

 Beta MOs
 -- Occupied --
-14.329 -10.228 -10.215 -10.212 -10.209 -10.198 -10.190  -0.948
 -0.803  -0.741  -0.703  -0.590  -0.554  -0.534  -0.500  -0.469
 -0.436  -0.412  -0.393  -0.364  -0.342  -0.285  -0.253  -0.238

          Ground-State Mulliken Net Atomic Charges

     Atom                 Charge (a.u.)    Spin (a.u.)
  --------------------------------------------------------
      1 C                     0.007620       0.001182
      2 C                    -0.122944       0.002729
      3 C                    -0.228260       0.042987
      4 C                    -0.119071      -0.167647
      5 C                     0.085563      -0.006788
      6 N                    -0.370666       0.006815
      7 H                     0.141669      -0.000004
      8 H                     0.147076       0.000259
      9 H                     0.180623      -0.004680
     10 H                     0.149408       0.078396
     11 H                     0.145821      -0.000023
     12 C                    -0.181973       1.042965
     13 H                     0.165134       0.003809
  --------------------------------------------------------
  Sum of atomic charges =    -0.000000

                    Cartesian Multipole Moments
 -----------------------------------------------------------------
    Charge (ESU x 10^10)
                -0.0000
    Dipole Moment (Debye)
         X      -2.0094      Y      -1.4208      Z      -0.2661
       Tot       2.4753
    Quadrupole Moments (Debye-Ang)
        XX     -38.2983     XY      -4.5865     YY     -43.4447
        XZ       0.5770     YZ      -0.5316     ZZ     -39.9105

 Total job time:  57.12s(wall), 162.92s(cpu)
        *  Thank you very much for using Q-Chem.  Have a nice day.  *
