 Q-Chem 5.0, Q-Chem, Inc., Pleasanton, CA (2017)
 Q-Chem 5.0.2 for Intel X86 EM64T Linux

User input:
--------------------------------------------------------------
$molecule
0 2
C        1.8690954104    0.1786068315   -0.0579114029
C        1.1101211323   -0.8839581598   -0.4169549550
C       -0.3006225739   -0.4768976705   -0.7001225457
C       -1.4336271719   -0.5912996406    0.2897930971
C       -0.0562397740    1.1823942423   -0.2425968851
N        1.1888335896    1.3874852843    0.0540422510
H        2.9406798539    0.1804647046    0.1177107617
H        1.5219187670   -1.8667248950   -0.6333966838
H       -0.5943251320   -0.8205311378   -1.7073141071
H       -2.3827320807   -1.0340214231   -0.0112764610
H       -0.8015606891    1.9792901976   -0.3039268526
C       -1.2796626992    0.2119906840    1.3342678951
H       -1.8332629253    0.5279543795    2.2067964667
$end

$rem
method                b3lyp
basis                 6-31g(d)
unrestricted          true
symmetry              off
sym_ignore            true
incdft                false
incfock               0
scf_convergence       6
thresh                14
jobtype               sp
scf_guess             read
scf_algorithm         diis
max_scf_cycles        100
stability_analysis    true
max_cis_cycles        100
cis_n_roots           4
$end

--------------------------------------------------------------

             Standard Nuclear Orientation (Angstroms)
    I     Atom           X                Y                Z
 ----------------------------------------------------------------
    1      C       1.8690954104     0.1786068315    -0.0579114029
    2      C       1.1101211323    -0.8839581598    -0.4169549550
    3      C      -0.3006225739    -0.4768976705    -0.7001225457
    4      C      -1.4336271719    -0.5912996406     0.2897930971
    5      C      -0.0562397740     1.1823942423    -0.2425968851
    6      N       1.1888335896     1.3874852843     0.0540422510
    7      H       2.9406798539     0.1804647046     0.1177107617
    8      H       1.5219187670    -1.8667248950    -0.6333966838
    9      H      -0.5943251320    -0.8205311378    -1.7073141071
   10      H      -2.3827320807    -1.0340214231    -0.0112764610
   11      H      -0.8015606891     1.9792901976    -0.3039268526
   12      C      -1.2796626992     0.2119906840     1.3342678951
   13      H      -1.8332629253     0.5279543795     2.2067964667
 ----------------------------------------------------------------

    2    -286.7969166197      2.85E-09 Convergence criterion met
 Total energy in the final basis set = -286.79691662

         TDDFT/TDA Excitation Energies
 ---------------------------------------------------

 Excited state   1: excitation energy (eV) =    2.1026
 Total energy for state  1:                  -286.71964913 au
    <S**2>     :  0.8990
    Trans. Mom.:  0.3377 X  -0.0269 Y  -0.1339 Z
    Strength   :     0.0068370229
    S(  1) --> V(  1) amplitude = -0.2224 alpha
    D( 23) --> S(  1) amplitude =  0.2190 beta
    D( 24) --> S(  1) amplitude =  0.9328 beta

 Excited state   2: excitation energy (eV) =    2.7959
 Total energy for state  2:                  -286.69416862 au
    <S**2>     :  1.2355
    Trans. Mom.: -0.2389 X   0.0488 Y   0.0779 Z
    Strength   :     0.0044884715
    S(  1) --> V(  1) amplitude =  0.4861 alpha
    D( 23) --> S(  1) amplitude =  0.8234 beta

 Excited state   3: excitation energy (eV) =    3.3984
 Total energy for state  3:                  -286.67202935 au
    <S**2>     :  1.5698
    Trans. Mom.:  0.1755 X   0.0759 Y  -0.1686 Z
    Strength   :     0.0054091601
    D( 24) --> V(  1) amplitude = -0.3072 alpha
    S(  1) --> V(  1) amplitude =  0.2465 alpha
    D( 22) --> S(  1) amplitude =  0.6942 beta
    D( 23) --> S(  1) amplitude = -0.2732 beta
    D( 24) --> V(  1) amplitude =  0.4549 beta

 Excited state   4: excitation energy (eV) =    3.6430
 Total energy for state  4:                  -286.66303980 au
    <S**2>     :  0.8912
    Trans. Mom.:  0.5745 X  -0.1701 Y  -0.3459 Z
    Strength   :     0.0427159291
    S(  1) --> V(  1) amplitude =  0.7012 alpha
    S(  1) --> V(  2) amplitude =  0.2971 alpha
    D( 22) --> S(  1) amplitude = -0.3836 beta
    D( 23) --> S(  1) amplitude = -0.3531 beta
    D( 24) --> S(  1) amplitude =  0.2860 beta

 ---------------------------------------------------

                    Orbital Energies (a.u.)
 --------------------------------------------------------------

 Alpha MOs
 -- Occupied --
-14.328 -10.244 -10.219 -10.210 -10.209 -10.205 -10.192  -0.946
 -0.811  -0.752  -0.681  -0.609  -0.550  -0.533  -0.512  -0.472
 -0.424  -0.412  -0.384  -0.370  -0.352  -0.284  -0.264  -0.238
 -0.204

 Beta MOs
 -- Occupied --
-14.323 -10.246 -10.218 -10.211 -10.207 -10.195 -10.190  -0.940
 -0.803  -0.746  -0.675  -0.601  -0.546  -0.526  -0.507  -0.465
 -0.419  -0.406  -0.383  -0.365  -0.343  -0.278  -0.246  -0.222

          Ground-State Mulliken Net Atomic Charges

     Atom                 Charge (a.u.)    Spin (a.u.)
  --------------------------------------------------------
      1 C                     0.024262      -0.100341
      2 C                    -0.113717       0.187367
      3 C                    -0.214785       0.027653
      4 C                    -0.097139      -0.155186
      5 C                     0.012733      -0.177252
      6 N                    -0.343402       0.244416
      7 H                     0.141082       0.003902
      8 H                     0.140688      -0.008157
      9 H                     0.154858       0.014014
     10 H                     0.146676       0.065407
     11 H                     0.173028       0.013087
     12 C                    -0.183386       0.876640
     13 H                     0.159102       0.008449
  --------------------------------------------------------
  Sum of atomic charges =     0.000000

                    Cartesian Multipole Moments
 -----------------------------------------------------------------
    Charge (ESU x 10^10)
                 0.0000
    Dipole Moment (Debye)
         X      -1.5913      Y      -1.4066      Z      -0.7872
       Tot       2.2650
    Quadrupole Moments (Debye-Ang)
        XX     -37.2039     XY      -3.5989     YY     -42.3879
        XZ      -0.8846     YZ       1.2485     ZZ     -40.1899

 Total job time:  86.29s(wall), 82.42s(cpu)
        *  Thank you very much for using Q-Chem.  Have a nice day.  *
