 Q-Chem 5.0, Q-Chem, Inc., Pleasanton, CA (2017)
 Q-Chem 5.0.2 for Intel X86 EM64T Linux

User input:
--------------------------------------------------------------
$molecule
0 2
C        1.8347822767    0.1051128593   -0.0229204164
C        1.0274500349   -0.8691635764   -0.5138320822
C       -0.3306554893   -0.2595557234   -0.7337914158
C       -1.3361163282   -0.6472673112    0.3361325478
C       -0.0420140191    1.1759097702   -0.2663812868
N        1.2124671838    1.3526678722    0.1107846633
H        2.8765237655    0.0094487672    0.2660783825
H        1.2786030818   -1.9108774745   -0.6710676043
H       -0.6993109980   -0.3501037548   -1.7661665449
H       -1.8247419469   -1.6231257155    0.3859170044
H       -0.6797063209    2.0272256051   -0.4874690546
C       -1.4264236995    0.3593969153    1.1846833510
H       -1.9422418337    0.6050851634    2.1071430344
$end

$rem
method                b3lyp
basis                 6-31+g(d,p)
unrestricted          true
symmetry              off
sym_ignore            true
incdft                false
incfock               0
scf_convergence       8
thresh                14
jobtype               freq
scf_guess             read
scf_algorithm         diis
max_scf_cycles        100
$end

--------------------------------------------------------------

             Standard Nuclear Orientation (Angstroms)
    I     Atom           X                Y                Z
 ----------------------------------------------------------------
    1      C       1.8347822767     0.1051128593    -0.0229204164
    2      C       1.0274500349    -0.8691635764    -0.5138320822
    3      C      -0.3306554893    -0.2595557234    -0.7337914158
    4      C      -1.3361163282    -0.6472673112     0.3361325478
    5      C      -0.0420140191     1.1759097702    -0.2663812868
    6      N       1.2124671838     1.3526678722     0.1107846633
    7      H       2.8765237655     0.0094487672     0.2660783825
    8      H       1.2786030818    -1.9108774745    -0.6710676043
    9      H      -0.6993109980    -0.3501037548    -1.7661665449
   10      H      -1.8247419469    -1.6231257155     0.3859170044
   11      H      -0.6797063209     2.0272256051    -0.4874690546
   12      C      -1.4264236995     0.3593969153     1.1846833510
   13      H      -1.9422418337     0.6050851634     2.1071430344
 ----------------------------------------------------------------

    2    -286.8519917784      1.22E-09 Convergence criterion met
 Total energy in the final basis set = -286.85199178

                    Orbital Energies (a.u.)
 --------------------------------------------------------------

 Alpha MOs
 -- Occupied --
-14.342 -10.243 -10.224 -10.221 -10.221 -10.216 -10.208  -0.962
 -0.829  -0.761  -0.701  -0.610  -0.567  -0.549  -0.522  -0.486
 -0.439  -0.422  -0.394  -0.387  -0.360  -0.290  -0.279  -0.276
 -0.208

 Beta MOs
 -- Occupied --
-14.336 -10.246 -10.225 -10.220 -10.217 -10.209 -10.205  -0.956
 -0.821  -0.753  -0.696  -0.600  -0.564  -0.542  -0.517  -0.479
 -0.431  -0.419  -0.391  -0.385  -0.344  -0.277  -0.271  -0.255

          Ground-State Mulliken Net Atomic Charges

     Atom                 Charge (a.u.)    Spin (a.u.)
  --------------------------------------------------------
      1 C                    -0.045570      -0.148290
      2 C                    -0.227477       0.318715
      3 C                     0.226733      -0.022599
      4 C                    -0.175719      -0.142886
      5 C                    -0.282032      -0.191732
      6 N                    -0.172433       0.309297
      7 H                     0.131991       0.004296
      8 H                     0.137034      -0.012400
      9 H                     0.159756       0.012781
     10 H                     0.138636       0.045962
     11 H                     0.157714       0.020795
     12 C                    -0.192165       0.789207
     13 H                     0.143533       0.016854
  --------------------------------------------------------
  Sum of atomic charges =     0.000000

                    Cartesian Multipole Moments
 -----------------------------------------------------------------
    Charge (ESU x 10^10)
                -0.0000
    Dipole Moment (Debye)
         X      -1.4211      Y      -2.0698      Z      -0.7640
       Tot       2.6244
    Quadrupole Moments (Debye-Ang)
        XX     -40.8634     XY      -3.7732     YY     -43.1172
        XZ      -0.8701     YZ      -0.2008     ZZ     -41.0219

 Frequency:      -575.79                 227.25                 242.11
 Force Cnst:      1.1162                 0.1057                 0.1118
 Red. Mass:       5.7141                 3.4735                 3.2359
 IR Intens:        9.488                  0.982                  0.942
 Frequency:       368.18                 549.83                 649.22
 Force Cnst:      0.2613                 0.5066                 0.6560
 Red. Mass:       3.2723                 2.8442                 2.6415
 IR Intens:        7.662                 13.001                  2.920
 Frequency:       664.76                 742.18                 785.95
 Force Cnst:      0.4112                 0.4445                 0.4010
 Red. Mass:       1.5794                 1.3696                 1.1019
 IR Intens:       60.536                 23.000                 92.891
 Frequency:       825.68                 836.32                 868.46
 Force Cnst:      0.9284                 1.7811                 0.6714
 Red. Mass:       2.3114                 4.3222                 1.5108
 IR Intens:        2.599                  3.246                  4.563
 Frequency:       891.98                 914.85                 959.76
 Force Cnst:      1.0934                 1.0160                 0.7586
 Red. Mass:       2.3326                 2.0603                 1.3978
 IR Intens:        4.157                 10.901                  2.008
 Frequency:       986.95                1020.36                1063.41
 Force Cnst:      0.9589                 1.0186                 2.1743
 Red. Mass:       1.6709                 1.6605                 3.2634
 IR Intens:        9.948                  4.743                  9.857
 Frequency:      1128.44                1181.05                1227.09
 Force Cnst:      0.9698                 1.3793                 1.3404
 Red. Mass:       1.2926                 1.6783                 1.5109
 IR Intens:        2.288                 40.817                  6.941
 Frequency:      1244.25                1272.45                1332.81
 Force Cnst:      1.5468                 1.6965                 2.0518
 Red. Mass:       1.6958                 1.7784                 1.9604
 IR Intens:       10.799                  7.778                  7.164
 Frequency:      1440.05                1560.96                1652.36
 Force Cnst:      3.3893                 6.9538                10.3042
 Red. Mass:       2.7740                 4.8438                 6.4055
 IR Intens:        0.275                 16.557                  8.001
 Frequency:      3031.80                3114.84                3195.96
 Force Cnst:      5.8666                 6.2158                 6.5695
 Red. Mass:       1.0833                 1.0874                 1.0916
 IR Intens:       15.822                 22.905                  2.142
 Frequency:      3213.78                3223.62                3246.19
 Force Cnst:      6.6327                 6.7814                 6.8354
 Red. Mass:       1.0900                 1.1076                 1.1010
 IR Intens:       10.218                  2.166                  8.172

 STANDARD THERMODYNAMIC QUANTITIES AT   298.15 K  AND     1.00 ATM

   This Molecule has  1 Imaginary Frequencies
   Zero point vibrational energy:       62.419 kcal/mol

   Atom    1 Element C  Has Mass   12.00000
   Atom    2 Element C  Has Mass   12.00000
   Atom    3 Element C  Has Mass   12.00000
   Atom    4 Element C  Has Mass   12.00000
   Atom    5 Element C  Has Mass   12.00000
   Atom    6 Element N  Has Mass   14.00307
   Atom    7 Element H  Has Mass    1.00783
   Atom    8 Element H  Has Mass    1.00783
   Atom    9 Element H  Has Mass    1.00783
   Atom   10 Element H  Has Mass    1.00783
   Atom   11 Element H  Has Mass    1.00783
   Atom   12 Element C  Has Mass   12.00000
   Atom   13 Element H  Has Mass    1.00783
   Molecular Mass:    92.050050 amu
   Principal axes and moments of inertia in amu*Bohr^2:
                             1           2           3
    Eigenvalues --      334.41807   613.84894   776.64401
          X               0.95526    -0.05546     0.29053
          Y               0.14885     0.93896    -0.31015
          Z              -0.25560     0.33952     0.90520
   Rotational Symmetry Number is   1
   The Molecule is an Asymmetric Top
   Translational Enthalpy:        0.889 kcal/mol
   Rotational Enthalpy:           0.889 kcal/mol
   Vibrational Enthalpy:         64.017 kcal/mol
   gas constant (RT):             0.592 kcal/mol
   Translational Entropy:        39.471  cal/mol.K
   Rotational Entropy:           26.569  cal/mol.K
   Vibrational Entropy:           7.946  cal/mol.K

   Total Enthalpy:               66.387 kcal/mol
   Total Entropy:                73.986  cal/mol.K

 Total job time:  557.90s(wall), 551.95s(cpu)
        *  Thank you very much for using Q-Chem.  Have a nice day.  *
