 Q-Chem 5.0, Q-Chem, Inc., Pleasanton, CA (2017)
 Q-Chem 5.0.2 for Intel X86 EM64T Linux

User input:
--------------------------------------------------------------
$molecule
0 2
C        1.8347822767    0.1051128593   -0.0229204164
C        1.0274500349   -0.8691635764   -0.5138320822
C       -0.3306554893   -0.2595557234   -0.7337914158
C       -1.3361163282   -0.6472673112    0.3361325478
C       -0.0420140191    1.1759097702   -0.2663812868
N        1.2124671838    1.3526678722    0.1107846633
H        2.8765237655    0.0094487672    0.2660783825
H        1.2786030818   -1.9108774745   -0.6710676043
H       -0.6993109980   -0.3501037548   -1.7661665449
H       -1.8247419469   -1.6231257155    0.3859170044
H       -0.6797063209    2.0272256051   -0.4874690546
C       -1.4264236995    0.3593969153    1.1846833510
H       -1.9422418337    0.6050851634    2.1071430344
$end

$rem
method                b3lyp
basis                 6-31g(d)
unrestricted          true
symmetry              off
sym_ignore            true
incdft                false
incfock               0
scf_convergence       6
thresh                14
jobtype               sp
scf_guess             read
scf_algorithm         diis
max_scf_cycles        100
stability_analysis    true
max_cis_cycles        100
cis_n_roots           4
$end

--------------------------------------------------------------

             Standard Nuclear Orientation (Angstroms)
    I     Atom           X                Y                Z
 ----------------------------------------------------------------
    1      C       1.8347822767     0.1051128593    -0.0229204164
    2      C       1.0274500349    -0.8691635764    -0.5138320822
    3      C      -0.3306554893    -0.2595557234    -0.7337914158
    4      C      -1.3361163282    -0.6472673112     0.3361325478
    5      C      -0.0420140191     1.1759097702    -0.2663812868
    6      N       1.2124671838     1.3526678722     0.1107846633
    7      H       2.8765237655     0.0094487672     0.2660783825
    8      H       1.2786030818    -1.9108774745    -0.6710676043
    9      H      -0.6993109980    -0.3501037548    -1.7661665449
   10      H      -1.8247419469    -1.6231257155     0.3859170044
   11      H      -0.6797063209     2.0272256051    -0.4874690546
   12      C      -1.4264236995     0.3593969153     1.1846833510
   13      H      -1.9422418337     0.6050851634     2.1071430344
 ----------------------------------------------------------------

    2    -286.8287088072      1.64E-09 Convergence criterion met
 Total energy in the final basis set = -286.82870881

         TDDFT/TDA Excitation Energies
 ---------------------------------------------------

 Excited state   1: excitation energy (eV) =    2.7683
 Total energy for state  1:                  -286.72697544 au
    <S**2>     :  0.9750
    Trans. Mom.:  0.3529 X  -0.0529 Y  -0.0685 Z
    Strength   :     0.0089544893
    S(  1) --> V(  1) amplitude = -0.6025 alpha
    D( 24) --> S(  1) amplitude =  0.7612 beta

 Excited state   2: excitation energy (eV) =    3.0571
 Total energy for state  2:                  -286.71636206 au
    <S**2>     :  0.9448
    Trans. Mom.:  0.0417 X   0.0412 Y  -0.0764 Z
    Strength   :     0.0006945316
    D( 22) --> S(  1) amplitude =  0.1859 beta
    D( 23) --> S(  1) amplitude =  0.9549 beta

 Excited state   3: excitation energy (eV) =    3.1448
 Total energy for state  3:                  -286.71313971 au
    <S**2>     :  0.9010
    Trans. Mom.:  0.0329 X  -0.0233 Y   0.0560 Z
    Strength   :     0.0003669122
    S(  1) --> V(  1) amplitude = -0.3116 alpha
    S(  1) --> V(  2) amplitude =  0.1674 alpha
    D( 22) --> S(  1) amplitude =  0.8736 beta
    D( 23) --> S(  1) amplitude = -0.2230 beta

 Excited state   4: excitation energy (eV) =    3.7899
 Total energy for state  4:                  -286.68943091 au
    <S**2>     :  0.8248
    Trans. Mom.:  0.6084 X  -0.2043 Y  -0.3791 Z
    Strength   :     0.0515898644
    S(  1) --> V(  1) amplitude =  0.6273 alpha
    S(  1) --> V(  2) amplitude =  0.4730 alpha
    D( 22) --> S(  1) amplitude =  0.2027 beta
    D( 24) --> S(  1) amplitude =  0.5269 beta

 ---------------------------------------------------

                    Orbital Energies (a.u.)
 --------------------------------------------------------------

 Alpha MOs
 -- Occupied --
-14.327 -10.232 -10.213 -10.210 -10.209 -10.204 -10.197  -0.949
 -0.817  -0.749  -0.690  -0.599  -0.557  -0.540  -0.512  -0.476
 -0.428  -0.411  -0.384  -0.377  -0.348  -0.278  -0.266  -0.264
 -0.196

 Beta MOs
 -- Occupied --
-14.321 -10.235 -10.214 -10.209 -10.205 -10.197 -10.193  -0.942
 -0.808  -0.742  -0.685  -0.590  -0.554  -0.533  -0.507  -0.470
 -0.420  -0.409  -0.380  -0.375  -0.332  -0.265  -0.258  -0.243

          Ground-State Mulliken Net Atomic Charges

     Atom                 Charge (a.u.)    Spin (a.u.)
  --------------------------------------------------------
      1 C                     0.028905      -0.123699
      2 C                    -0.123278       0.267812
      3 C                    -0.207620       0.026173
      4 C                    -0.106538      -0.124758
      5 C                     0.022624      -0.208779
      6 N                    -0.359623       0.315741
      7 H                     0.141973       0.004525
      8 H                     0.143135      -0.012558
      9 H                     0.161590       0.011945
     10 H                     0.142597       0.047628
     11 H                     0.167273       0.019186
     12 C                    -0.164101       0.761281
     13 H                     0.153063       0.015503
  --------------------------------------------------------
  Sum of atomic charges =     0.000000

                    Cartesian Multipole Moments
 -----------------------------------------------------------------
    Charge (ESU x 10^10)
                 0.0000
    Dipole Moment (Debye)
         X      -1.3170      Y      -1.9209      Z      -0.6967
       Tot       2.4310
    Quadrupole Moments (Debye-Ang)
        XX     -39.2973     XY      -3.4621     YY     -41.5766
        XZ      -0.9594     YZ      -0.2032     ZZ     -39.6464

 Total job time:  88.83s(wall), 84.47s(cpu)
        *  Thank you very much for using Q-Chem.  Have a nice day.  *
