 Q-Chem 5.0, Q-Chem, Inc., Pleasanton, CA (2017)
 Q-Chem 5.0.2 for Intel X86 EM64T Linux

User input:
--------------------------------------------------------------
$molecule
0 2
C        1.8347822767    0.1051128593   -0.0229204164
C        1.0274500349   -0.8691635764   -0.5138320822
C       -0.3306554893   -0.2595557234   -0.7337914158
C       -1.3361163282   -0.6472673112    0.3361325478
C       -0.0420140191    1.1759097702   -0.2663812868
N        1.2124671838    1.3526678722    0.1107846633
H        2.8765237655    0.0094487672    0.2660783825
H        1.2786030818   -1.9108774745   -0.6710676043
H       -0.6993109980   -0.3501037548   -1.7661665449
H       -1.8247419469   -1.6231257155    0.3859170044
H       -0.6797063209    2.0272256051   -0.4874690546
C       -1.4264236995    0.3593969153    1.1846833510
H       -1.9422418337    0.6050851634    2.1071430344
$end

$rem
method                b3lyp
basis                 6-31+g(d,p)
unrestricted          true
symmetry              off
sym_ignore            true
incdft                false
incfock               0
scf_convergence       8
thresh                14
jobtype               ts
scf_guess             read
scf_algorithm         diis
max_scf_cycles        100
geom_opt_max_cycles   500
geom_opt_dmax         100
geom_opt_tol_gradient 10
geom_opt_hessian      read
$end

--------------------------------------------------------------

    2    -286.8519917785      3.94E-10 Convergence criterion met
 Total energy in the final basis set = -286.85199178
   14    -286.8520214071      5.21E-09 Convergence criterion met
 Total energy in the final basis set = -286.85202141

             Standard Nuclear Orientation (Angstroms)
    I     Atom           X                Y                Z
 ----------------------------------------------------------------
    1      C       1.8387484605     0.1061605412    -0.0238752880
    2      C       1.0290867482    -0.8709312531    -0.5129707680
    3      C      -0.3295072895    -0.2621781405    -0.7313797560
    4      C      -1.3388556814    -0.6512145835     0.3344155702
    5      C      -0.0468324088     1.1740861526    -0.2605128039
    6      N       1.2112522180     1.3498230991     0.1134465148
    7      H       2.8807938063     0.0121545704     0.2607178898
    8      H       1.2840674759    -1.9106136041    -0.6750337088
    9      H      -0.6952687597    -0.3504767565    -1.7646578091
   10      H      -1.8339269616    -1.6230806353     0.3839034728
   11      H      -0.6834110015     2.0252928016    -0.4819054057
   12      C      -1.4279535968     0.3577801211     1.1836011498
   13      H      -1.9395773024     0.6179510840     2.1033615206
 ----------------------------------------------------------------

    8    -286.8520214090      7.02E-09 Convergence criterion met
 Total energy in the final basis set = -286.85202141
 Final energy is   -286.852021408967
 **  OPTIMIZATION CONVERGED  **

                    Orbital Energies (a.u.)
 --------------------------------------------------------------

 Alpha MOs
 -- Occupied --
-14.342 -10.243 -10.224 -10.221 -10.221 -10.217 -10.208  -0.961
 -0.829  -0.761  -0.700  -0.610  -0.567  -0.549  -0.522  -0.486
 -0.439  -0.422  -0.394  -0.387  -0.359  -0.290  -0.278  -0.276
 -0.207

 Beta MOs
 -- Occupied --
-14.336 -10.246 -10.226 -10.220 -10.218 -10.210 -10.205  -0.955
 -0.820  -0.753  -0.696  -0.600  -0.564  -0.542  -0.517  -0.479
 -0.431  -0.419  -0.391  -0.385  -0.343  -0.277  -0.270  -0.255

          Ground-State Mulliken Net Atomic Charges

     Atom                 Charge (a.u.)    Spin (a.u.)
  --------------------------------------------------------
      1 C                    -0.044023      -0.153343
      2 C                    -0.227499       0.329922
      3 C                     0.227288      -0.024595
      4 C                    -0.176684      -0.139702
      5 C                    -0.286211      -0.194303
      6 N                    -0.172738       0.317514
      7 H                     0.132308       0.004474
      8 H                     0.137052      -0.012871
      9 H                     0.159682       0.013463
     10 H                     0.138250       0.044927
     11 H                     0.158103       0.021198
     12 C                    -0.189466       0.777543
     13 H                     0.143936       0.015774
  --------------------------------------------------------
  Sum of atomic charges =    -0.000000

                    Cartesian Multipole Moments
 -----------------------------------------------------------------
    Charge (ESU x 10^10)
                 0.0000
    Dipole Moment (Debye)
         X      -1.4185      Y      -2.0581      Z      -0.7618
       Tot       2.6131
    Quadrupole Moments (Debye-Ang)
        XX     -40.7960     XY      -3.8196     YY     -43.1230
        XZ      -0.9102     YZ      -0.1614     ZZ     -41.0394

 Total job time:  50.08s(wall), 174.74s(cpu)
        *  Thank you very much for using Q-Chem.  Have a nice day.  *
