 Q-Chem 5.0, Q-Chem, Inc., Pleasanton, CA (2017)
 Q-Chem 5.0.2 for Intel X86 EM64T Linux

User input:
--------------------------------------------------------------
$molecule
0 2
C        1.8387484605    0.1061605412   -0.0238752880
C        1.0290867482   -0.8709312531   -0.5129707680
C       -0.3295072895   -0.2621781405   -0.7313797560
C       -1.3388556814   -0.6512145835    0.3344155702
C       -0.0468324088    1.1740861526   -0.2605128039
N        1.2112522180    1.3498230991    0.1134465148
H        2.8807938063    0.0121545704    0.2607178898
H        1.2840674759   -1.9106136041   -0.6750337088
H       -0.6952687597   -0.3504767565   -1.7646578091
H       -1.8339269616   -1.6230806353    0.3839034728
H       -0.6834110015    2.0252928016   -0.4819054057
C       -1.4279535968    0.3577801211    1.1836011498
H       -1.9395773024    0.6179510840    2.1033615206
$end

$rem
method                b3lyp
basis                 6-31+g(d,p)
unrestricted          true
symmetry              off
sym_ignore            true
incdft                false
incfock               0
scf_convergence       6
thresh                14
jobtype               sp
scf_guess             read
scf_algorithm         diis
max_scf_cycles        100
stability_analysis    true
max_cis_cycles        100
cis_n_roots           4
$end

--------------------------------------------------------------

             Standard Nuclear Orientation (Angstroms)
    I     Atom           X                Y                Z
 ----------------------------------------------------------------
    1      C       1.8387484605     0.1061605412    -0.0238752880
    2      C       1.0290867482    -0.8709312531    -0.5129707680
    3      C      -0.3295072895    -0.2621781405    -0.7313797560
    4      C      -1.3388556814    -0.6512145835     0.3344155702
    5      C      -0.0468324088     1.1740861526    -0.2605128039
    6      N       1.2112522180     1.3498230991     0.1134465148
    7      H       2.8807938063     0.0121545704     0.2607178898
    8      H       1.2840674759    -1.9106136041    -0.6750337088
    9      H      -0.6952687597    -0.3504767565    -1.7646578091
   10      H      -1.8339269616    -1.6230806353     0.3839034728
   11      H      -0.6834110015     2.0252928016    -0.4819054057
   12      C      -1.4279535968     0.3577801211     1.1836011498
   13      H      -1.9395773024     0.6179510840     2.1033615206
 ----------------------------------------------------------------

    2    -286.8520214090      1.38E-09 Convergence criterion met
 Total energy in the final basis set = -286.85202141

         TDDFT/TDA Excitation Energies
 ---------------------------------------------------

 Excited state   1: excitation energy (eV) =    2.7127
 Total energy for state  1:                  -286.75233117 au
    <S**2>     :  0.9570
    Trans. Mom.: -0.3594 X   0.0542 Y   0.0582 Z
    Strength   :     0.0090053838
    S(  1) --> V(  1) amplitude =  0.6179 alpha
    D( 24) --> S(  1) amplitude =  0.7519 beta

 Excited state   2: excitation energy (eV) =    3.0277
 Total energy for state  2:                  -286.74075421 au
    <S**2>     :  0.9322
    Trans. Mom.: -0.0430 X  -0.0522 Y   0.0677 Z
    Strength   :     0.0006795872
    D( 22) --> S(  1) amplitude =  0.1833 beta
    D( 23) --> S(  1) amplitude =  0.9554 beta

 Excited state   3: excitation energy (eV) =    3.1082
 Total energy for state  3:                  -286.73779867 au
    <S**2>     :  0.8829
    Trans. Mom.: -0.0064 X   0.0284 Y  -0.0842 Z
    Strength   :     0.0006047705
    S(  1) --> V(  1) amplitude =  0.3066 alpha
    S(  1) --> V(  2) amplitude = -0.1797 alpha
    D( 22) --> S(  1) amplitude =  0.8701 beta
    D( 23) --> S(  1) amplitude = -0.2217 beta

 Excited state   4: excitation energy (eV) =    3.6303
 Total energy for state  4:                  -286.71861110 au
    <S**2>     :  0.8076
    Trans. Mom.:  0.5877 X  -0.2133 Y  -0.3469 Z
    Strength   :     0.0454716600
    S(  1) --> V(  1) amplitude =  0.6111 alpha
    S(  1) --> V(  2) amplitude =  0.5229 alpha
    D( 22) --> S(  1) amplitude = -0.1805 beta
    D( 24) --> S(  1) amplitude = -0.5092 beta

 ---------------------------------------------------

                    Orbital Energies (a.u.)
 --------------------------------------------------------------

 Alpha MOs
 -- Occupied --
-14.342 -10.243 -10.224 -10.221 -10.221 -10.217 -10.208  -0.961
 -0.829  -0.761  -0.700  -0.610  -0.567  -0.549  -0.522  -0.486
 -0.439  -0.422  -0.394  -0.387  -0.359  -0.290  -0.278  -0.276
 -0.207

 Beta MOs
 -- Occupied --
-14.336 -10.246 -10.226 -10.220 -10.218 -10.210 -10.205  -0.955
 -0.820  -0.753  -0.696  -0.600  -0.564  -0.542  -0.517  -0.479
 -0.431  -0.419  -0.391  -0.385  -0.343  -0.277  -0.270  -0.255

          Ground-State Mulliken Net Atomic Charges

     Atom                 Charge (a.u.)    Spin (a.u.)
  --------------------------------------------------------
      1 C                    -0.044023      -0.153338
      2 C                    -0.227499       0.329916
      3 C                     0.227288      -0.024594
      4 C                    -0.176685      -0.139705
      5 C                    -0.286210      -0.194300
      6 N                    -0.172738       0.317511
      7 H                     0.132308       0.004474
      8 H                     0.137052      -0.012871
      9 H                     0.159682       0.013463
     10 H                     0.138250       0.044927
     11 H                     0.158103       0.021198
     12 C                    -0.189465       0.777546
     13 H                     0.143936       0.015774
  --------------------------------------------------------
  Sum of atomic charges =    -0.000000

                    Cartesian Multipole Moments
 -----------------------------------------------------------------
    Charge (ESU x 10^10)
                 0.0000
    Dipole Moment (Debye)
         X      -1.4185      Y      -2.0581      Z      -0.7618
       Tot       2.6131
    Quadrupole Moments (Debye-Ang)
        XX     -40.7960     XY      -3.8196     YY     -43.1230
        XZ      -0.9102     YZ      -0.1614     ZZ     -41.0394

 Total job time:  199.54s(wall), 190.84s(cpu)
        *  Thank you very much for using Q-Chem.  Have a nice day.  *
