 Q-Chem 5.0, Q-Chem, Inc., Pleasanton, CA (2017)
 Q-Chem 5.0.2 for Intel X86 EM64T Linux

User input:
--------------------------------------------------------------
$molecule
0 2
C        1.8347822767    0.1051128593   -0.0229204164
C        1.0274500349   -0.8691635764   -0.5138320822
C       -0.3306554893   -0.2595557234   -0.7337914158
C       -1.3361163282   -0.6472673112    0.3361325478
C       -0.0420140191    1.1759097702   -0.2663812868
N        1.2124671838    1.3526678722    0.1107846633
H        2.8765237655    0.0094487672    0.2660783825
H        1.2786030818   -1.9108774745   -0.6710676043
H       -0.6993109980   -0.3501037548   -1.7661665449
H       -1.8247419469   -1.6231257155    0.3859170044
H       -0.6797063209    2.0272256051   -0.4874690546
C       -1.4264236995    0.3593969153    1.1846833510
H       -1.9422418337    0.6050851634    2.1071430344
$end

$rem
method                b3lyp
basis                 6-31+g(d,p)
unrestricted          true
symmetry              off
sym_ignore            true
incdft                false
incfock               0
scf_convergence       8
thresh                14
jobtype               sp
scf_guess             core
scf_guess_mix         5
scf_algorithm         diis
max_scf_cycles        100
$end

--------------------------------------------------------------

             Standard Nuclear Orientation (Angstroms)
    I     Atom           X                Y                Z
 ----------------------------------------------------------------
    1      C       1.8347822767     0.1051128593    -0.0229204164
    2      C       1.0274500349    -0.8691635764    -0.5138320822
    3      C      -0.3306554893    -0.2595557234    -0.7337914158
    4      C      -1.3361163282    -0.6472673112     0.3361325478
    5      C      -0.0420140191     1.1759097702    -0.2663812868
    6      N       1.2124671838     1.3526678722     0.1107846633
    7      H       2.8765237655     0.0094487672     0.2660783825
    8      H       1.2786030818    -1.9108774745    -0.6710676043
    9      H      -0.6993109980    -0.3501037548    -1.7661665449
   10      H      -1.8247419469    -1.6231257155     0.3859170044
   11      H      -0.6797063209     2.0272256051    -0.4874690546
   12      C      -1.4264236995     0.3593969153     1.1846833510
   13      H      -1.9422418337     0.6050851634     2.1071430344
 ----------------------------------------------------------------

   23    -286.8519917785      5.96E-09 Convergence criterion met
 Total energy in the final basis set = -286.85199178

                    Orbital Energies (a.u.)
 --------------------------------------------------------------

 Alpha MOs
 -- Occupied --
-14.342 -10.243 -10.224 -10.221 -10.221 -10.216 -10.208  -0.962
 -0.829  -0.761  -0.701  -0.610  -0.567  -0.549  -0.522  -0.486
 -0.439  -0.422  -0.394  -0.387  -0.360  -0.290  -0.279  -0.276
 -0.208

 Beta MOs
 -- Occupied --
-14.336 -10.246 -10.225 -10.220 -10.217 -10.209 -10.205  -0.956
 -0.821  -0.753  -0.696  -0.600  -0.564  -0.542  -0.517  -0.479
 -0.431  -0.419  -0.391  -0.385  -0.344  -0.277  -0.271  -0.255

          Ground-State Mulliken Net Atomic Charges

     Atom                 Charge (a.u.)    Spin (a.u.)
  --------------------------------------------------------
      1 C                    -0.045570      -0.148287
      2 C                    -0.227478       0.318712
      3 C                     0.226733      -0.022598
      4 C                    -0.175719      -0.142890
      5 C                    -0.282032      -0.191732
      6 N                    -0.172433       0.309297
      7 H                     0.131991       0.004296
      8 H                     0.137034      -0.012400
      9 H                     0.159756       0.012781
     10 H                     0.138636       0.045962
     11 H                     0.157714       0.020795
     12 C                    -0.192165       0.789211
     13 H                     0.143533       0.016854
  --------------------------------------------------------
  Sum of atomic charges =    -0.000000

                    Cartesian Multipole Moments
 -----------------------------------------------------------------
    Charge (ESU x 10^10)
                -0.0000
    Dipole Moment (Debye)
         X      -1.4211      Y      -2.0698      Z      -0.7640
       Tot       2.6244
    Quadrupole Moments (Debye-Ang)
        XX     -40.8634     XY      -3.7732     YY     -43.1172
        XZ      -0.8701     YZ      -0.2008     ZZ     -41.0219

 Total job time:  38.26s(wall), 118.00s(cpu)
        *  Thank you very much for using Q-Chem.  Have a nice day.  *
