 Q-Chem 5.0, Q-Chem, Inc., Pleasanton, CA (2017)
 Q-Chem 5.0.2 for Intel X86 EM64T Linux

User input:
--------------------------------------------------------------
$molecule
0 2
C        1.8387484605    0.1061605412   -0.0238752880
C        1.0290867482   -0.8709312531   -0.5129707680
C       -0.3295072895   -0.2621781405   -0.7313797560
C       -1.3388556814   -0.6512145835    0.3344155702
C       -0.0468324088    1.1740861526   -0.2605128039
N        1.2112522180    1.3498230991    0.1134465148
H        2.8807938063    0.0121545704    0.2607178898
H        1.2840674759   -1.9106136041   -0.6750337088
H       -0.6952687597   -0.3504767565   -1.7646578091
H       -1.8339269616   -1.6230806353    0.3839034728
H       -0.6834110015    2.0252928016   -0.4819054057
C       -1.4279535968    0.3577801211    1.1836011498
H       -1.9395773024    0.6179510840    2.1033615206
$end

$rem
method                b3lyp
basis                 6-31+g(d,p)
unrestricted          true
symmetry              off
sym_ignore            true
incdft                false
incfock               0
scf_convergence       8
thresh                14
jobtype               freq
scf_guess             read
scf_algorithm         diis
max_scf_cycles        100
$end

--------------------------------------------------------------

             Standard Nuclear Orientation (Angstroms)
    I     Atom           X                Y                Z
 ----------------------------------------------------------------
    1      C       1.8387484605     0.1061605412    -0.0238752880
    2      C       1.0290867482    -0.8709312531    -0.5129707680
    3      C      -0.3295072895    -0.2621781405    -0.7313797560
    4      C      -1.3388556814    -0.6512145835     0.3344155702
    5      C      -0.0468324088     1.1740861526    -0.2605128039
    6      N       1.2112522180     1.3498230991     0.1134465148
    7      H       2.8807938063     0.0121545704     0.2607178898
    8      H       1.2840674759    -1.9106136041    -0.6750337088
    9      H      -0.6952687597    -0.3504767565    -1.7646578091
   10      H      -1.8339269616    -1.6230806353     0.3839034728
   11      H      -0.6834110015     2.0252928016    -0.4819054057
   12      C      -1.4279535968     0.3577801211     1.1836011498
   13      H      -1.9395773024     0.6179510840     2.1033615206
 ----------------------------------------------------------------

    2    -286.8520214089      8.64E-10 Convergence criterion met
 Total energy in the final basis set = -286.85202141

                    Orbital Energies (a.u.)
 --------------------------------------------------------------

 Alpha MOs
 -- Occupied --
-14.342 -10.243 -10.224 -10.221 -10.221 -10.217 -10.208  -0.961
 -0.829  -0.761  -0.700  -0.610  -0.567  -0.549  -0.522  -0.486
 -0.439  -0.422  -0.394  -0.387  -0.359  -0.290  -0.278  -0.276
 -0.207

 Beta MOs
 -- Occupied --
-14.336 -10.246 -10.226 -10.220 -10.218 -10.210 -10.205  -0.955
 -0.820  -0.753  -0.696  -0.600  -0.564  -0.542  -0.517  -0.479
 -0.431  -0.419  -0.391  -0.385  -0.343  -0.277  -0.270  -0.255

          Ground-State Mulliken Net Atomic Charges

     Atom                 Charge (a.u.)    Spin (a.u.)
  --------------------------------------------------------
      1 C                    -0.044023      -0.153337
      2 C                    -0.227499       0.329914
      3 C                     0.227288      -0.024594
      4 C                    -0.176685      -0.139705
      5 C                    -0.286210      -0.194300
      6 N                    -0.172738       0.317511
      7 H                     0.132308       0.004474
      8 H                     0.137052      -0.012871
      9 H                     0.159682       0.013462
     10 H                     0.138250       0.044927
     11 H                     0.158103       0.021198
     12 C                    -0.189465       0.777547
     13 H                     0.143936       0.015773
  --------------------------------------------------------
  Sum of atomic charges =     0.000000

                    Cartesian Multipole Moments
 -----------------------------------------------------------------
    Charge (ESU x 10^10)
                -0.0000
    Dipole Moment (Debye)
         X      -1.4185      Y      -2.0581      Z      -0.7618
       Tot       2.6131
    Quadrupole Moments (Debye-Ang)
        XX     -40.7960     XY      -3.8196     YY     -43.1230
        XZ      -0.9102     YZ      -0.1614     ZZ     -41.0394

 Frequency:      -591.27                 229.30                 246.11
 Force Cnst:      1.1832                 0.1045                 0.1169
 Red. Mass:       5.7444                 3.3724                 3.2756
 IR Intens:       10.043                  1.091                  1.071
 Frequency:       369.84                 550.07                 649.10
 Force Cnst:      0.2615                 0.4986                 0.5627
 Red. Mass:       3.2454                 2.7969                 2.2668
 IR Intens:        7.900                 13.148                  6.959
 Frequency:       662.01                 737.75                 778.85
 Force Cnst:      0.4512                 0.4408                 0.3943
 Red. Mass:       1.7472                 1.3745                 1.1032
 IR Intens:       56.730                 22.252                 95.051
 Frequency:       824.55                 835.55                 866.14
 Force Cnst:      0.8988                 1.7446                 0.6766
 Red. Mass:       2.2437                 4.2414                 1.5307
 IR Intens:        1.796                  3.560                  4.114
 Frequency:       889.36                 911.28                 954.94
 Force Cnst:      1.0844                 1.0393                 0.7520
 Red. Mass:       2.3270                 2.1242                 1.3996
 IR Intens:        4.507                  9.922                  2.135
 Frequency:       985.14                1020.06                1063.12
 Force Cnst:      0.9622                 1.0177                 2.1496
 Red. Mass:       1.6828                 1.6600                 3.2280
 IR Intens:        9.951                  5.069                  9.891
 Frequency:      1124.36                1179.60                1226.03
 Force Cnst:      0.9641                 1.3812                 1.3323
 Red. Mass:       1.2944                 1.6848                 1.5044
 IR Intens:        2.291                 39.198                  8.287
 Frequency:      1242.42                1268.20                1328.16
 Force Cnst:      1.5485                 1.7477                 2.0451
 Red. Mass:       1.7026                 1.8444                 1.9677
 IR Intens:        9.571                  8.137                  6.889
 Frequency:      1433.14                1549.96                1643.39
 Force Cnst:      3.2174                 6.7335                10.1395
 Red. Mass:       2.6588                 4.7572                 6.3722
 IR Intens:        0.292                 16.837                  7.949
 Frequency:      3033.83                3121.35                3202.43
 Force Cnst:      5.8740                 6.2424                 6.5962
 Red. Mass:       1.0832                 1.0875                 1.0916
 IR Intens:       16.187                 23.290                  1.967
 Frequency:      3222.76                3232.27                3250.27
 Force Cnst:      6.6647                 6.8165                 6.8558
 Red. Mass:       1.0891                 1.1074                 1.1015
 IR Intens:        8.655                  1.850                  9.147

 STANDARD THERMODYNAMIC QUANTITIES AT   298.15 K  AND     1.00 ATM

   This Molecule has  1 Imaginary Frequencies
   Zero point vibrational energy:       62.374 kcal/mol

   Atom    1 Element C  Has Mass   12.00000
   Atom    2 Element C  Has Mass   12.00000
   Atom    3 Element C  Has Mass   12.00000
   Atom    4 Element C  Has Mass   12.00000
   Atom    5 Element C  Has Mass   12.00000
   Atom    6 Element N  Has Mass   14.00307
   Atom    7 Element H  Has Mass    1.00783
   Atom    8 Element H  Has Mass    1.00783
   Atom    9 Element H  Has Mass    1.00783
   Atom   10 Element H  Has Mass    1.00783
   Atom   11 Element H  Has Mass    1.00783
   Atom   12 Element C  Has Mass   12.00000
   Atom   13 Element H  Has Mass    1.00783
   Molecular Mass:    92.050050 amu
   Principal axes and moments of inertia in amu*Bohr^2:
                             1           2           3
    Eigenvalues --      334.10054   614.36656   778.12065
          X               0.95571    -0.05440     0.28923
          Y               0.14768     0.93872    -0.31144
          Z              -0.25456     0.34036     0.90518
   Rotational Symmetry Number is   1
   The Molecule is an Asymmetric Top
   Translational Enthalpy:        0.889 kcal/mol
   Rotational Enthalpy:           0.889 kcal/mol
   Vibrational Enthalpy:         63.972 kcal/mol
   gas constant (RT):             0.592 kcal/mol
   Translational Entropy:        39.471  cal/mol.K
   Rotational Entropy:           26.571  cal/mol.K
   Vibrational Entropy:           7.921  cal/mol.K

   Total Enthalpy:               66.342 kcal/mol
   Total Entropy:                73.963  cal/mol.K

 Total job time:  560.94s(wall), 553.58s(cpu)
        *  Thank you very much for using Q-Chem.  Have a nice day.  *
