 Q-Chem 5.0, Q-Chem, Inc., Pleasanton, CA (2017)
 Q-Chem 5.0.2 for Intel X86 EM64T Linux

User input:
--------------------------------------------------------------
$molecule
0 2
C        1.8690954104    0.1786068315   -0.0579114029
C        1.1101211323   -0.8839581598   -0.4169549550
C       -0.3006225739   -0.4768976705   -0.7001225457
C       -1.4336271719   -0.5912996406    0.2897930971
C       -0.0562397740    1.1823942423   -0.2425968851
N        1.1888335896    1.3874852843    0.0540422510
H        2.9406798539    0.1804647046    0.1177107617
H        1.5219187670   -1.8667248950   -0.6333966838
H       -0.5943251320   -0.8205311378   -1.7073141071
H       -2.3827320807   -1.0340214231   -0.0112764610
H       -0.8015606891    1.9792901976   -0.3039268526
C       -1.2796626992    0.2119906840    1.3342678951
H       -1.8332629253    0.5279543795    2.2067964667
$end

$rem
method                b3lyp
basis                 6-31g(d)
unrestricted          true
symmetry              off
sym_ignore            true
incdft                false
incfock               0
scf_convergence       8
thresh                14
jobtype               freq
scf_guess             read
scf_algorithm         diis
max_scf_cycles        100
$end

--------------------------------------------------------------

             Standard Nuclear Orientation (Angstroms)
    I     Atom           X                Y                Z
 ----------------------------------------------------------------
    1      C       1.8690954104     0.1786068315    -0.0579114029
    2      C       1.1101211323    -0.8839581598    -0.4169549550
    3      C      -0.3006225739    -0.4768976705    -0.7001225457
    4      C      -1.4336271719    -0.5912996406     0.2897930971
    5      C      -0.0562397740     1.1823942423    -0.2425968851
    6      N       1.1888335896     1.3874852843     0.0540422510
    7      H       2.9406798539     0.1804647046     0.1177107617
    8      H       1.5219187670    -1.8667248950    -0.6333966838
    9      H      -0.5943251320    -0.8205311378    -1.7073141071
   10      H      -2.3827320807    -1.0340214231    -0.0112764610
   11      H      -0.8015606891     1.9792901976    -0.3039268526
   12      C      -1.2796626992     0.2119906840     1.3342678951
   13      H      -1.8332629253     0.5279543795     2.2067964667
 ----------------------------------------------------------------

    2    -286.7969166196      1.42E-09 Convergence criterion met
 Total energy in the final basis set = -286.79691662

                    Orbital Energies (a.u.)
 --------------------------------------------------------------

 Alpha MOs
 -- Occupied --
-14.328 -10.244 -10.219 -10.210 -10.209 -10.205 -10.192  -0.946
 -0.811  -0.752  -0.681  -0.609  -0.550  -0.533  -0.512  -0.472
 -0.424  -0.412  -0.384  -0.370  -0.352  -0.284  -0.264  -0.238
 -0.204

 Beta MOs
 -- Occupied --
-14.323 -10.246 -10.218 -10.211 -10.207 -10.195 -10.190  -0.940
 -0.803  -0.746  -0.675  -0.601  -0.546  -0.526  -0.507  -0.465
 -0.419  -0.406  -0.383  -0.365  -0.343  -0.278  -0.246  -0.222

          Ground-State Mulliken Net Atomic Charges

     Atom                 Charge (a.u.)    Spin (a.u.)
  --------------------------------------------------------
      1 C                     0.024262      -0.100342
      2 C                    -0.113717       0.187369
      3 C                    -0.214785       0.027652
      4 C                    -0.097139      -0.155182
      5 C                     0.012733      -0.177252
      6 N                    -0.343401       0.244416
      7 H                     0.141082       0.003902
      8 H                     0.140688      -0.008157
      9 H                     0.154858       0.014014
     10 H                     0.146676       0.065406
     11 H                     0.173028       0.013088
     12 C                    -0.183386       0.876636
     13 H                     0.159102       0.008449
  --------------------------------------------------------
  Sum of atomic charges =     0.000000

                    Cartesian Multipole Moments
 -----------------------------------------------------------------
    Charge (ESU x 10^10)
                -0.0000
    Dipole Moment (Debye)
         X      -1.5913      Y      -1.4066      Z      -0.7872
       Tot       2.2650
    Quadrupole Moments (Debye-Ang)
        XX     -37.2039     XY      -3.5989     YY     -42.3879
        XZ      -0.8846     YZ       1.2485     ZZ     -40.1899

 Frequency:      -508.28                 141.05                 254.09
 Force Cnst:      0.6051                 0.0396                 0.1008
 Red. Mass:       3.9752                 3.3758                 2.6507
 IR Intens:        9.994                  7.611                  9.263
 Frequency:       299.34                 413.86                 563.42
 Force Cnst:      0.1729                 0.4066                 0.5511
 Red. Mass:       3.2750                 4.0294                 2.9467
 IR Intens:        1.845                  8.781                  5.366
 Frequency:       606.46                 627.23                 748.61
 Force Cnst:      0.3774                 0.5112                 0.5122
 Red. Mass:       1.7415                 2.2055                 1.5513
 IR Intens:       20.779                 21.019                  9.272
 Frequency:       770.04                 794.78                 825.22
 Force Cnst:      0.5956                 0.5573                 0.8142
 Red. Mass:       1.7049                 1.4974                 2.0293
 IR Intens:       27.787                 30.339                  4.069
 Frequency:       841.52                 892.33                 920.47
 Force Cnst:      1.3677                 0.7120                 1.1914
 Red. Mass:       3.2781                 1.5178                 2.3867
 IR Intens:       16.808                  6.587                 13.931
 Frequency:       953.67                1068.57                1101.05
 Force Cnst:      0.7136                 1.3301                 1.5116
 Red. Mass:       1.3317                 1.9771                 2.1163
 IR Intens:        0.553                 15.608                  1.091
 Frequency:      1106.61                1169.04                1209.69
 Force Cnst:      1.1831                 0.9903                 1.2196
 Red. Mass:       1.6398                 1.2299                 1.4145
 IR Intens:        1.498                  2.594                 28.991
 Frequency:      1256.63                1298.19                1378.03
 Force Cnst:      1.1663                 1.5915                 2.5056
 Red. Mass:       1.2536                 1.6028                 2.2395
 IR Intens:       14.340                  3.537                 11.084
 Frequency:      1464.12                1588.74                1617.33
 Force Cnst:      5.1357                 7.4157                 9.5080
 Red. Mass:       4.0662                 4.9865                 6.1694
 IR Intens:        8.299                 23.589                  1.692
 Frequency:      3017.28                3137.72                3161.29
 Force Cnst:      5.8095                 6.2983                 6.4415
 Red. Mass:       1.0831                 1.0858                 1.0940
 IR Intens:       13.720                 22.824                  3.105
 Frequency:      3198.86                3227.37                3278.73
 Force Cnst:      6.5587                 6.7523                 6.9876
 Red. Mass:       1.0879                 1.1003                 1.1032
 IR Intens:        4.068                 26.911                  0.932

 STANDARD THERMODYNAMIC QUANTITIES AT   298.15 K  AND     1.00 ATM

   This Molecule has  1 Imaginary Frequencies
   Zero point vibrational energy:       61.373 kcal/mol

   Atom    1 Element C  Has Mass   12.00000
   Atom    2 Element C  Has Mass   12.00000
   Atom    3 Element C  Has Mass   12.00000
   Atom    4 Element C  Has Mass   12.00000
   Atom    5 Element C  Has Mass   12.00000
   Atom    6 Element N  Has Mass   14.00307
   Atom    7 Element H  Has Mass    1.00783
   Atom    8 Element H  Has Mass    1.00783
   Atom    9 Element H  Has Mass    1.00783
   Atom   10 Element H  Has Mass    1.00783
   Atom   11 Element H  Has Mass    1.00783
   Atom   12 Element C  Has Mass   12.00000
   Atom   13 Element H  Has Mass    1.00783
   Molecular Mass:    92.050050 amu
   Principal axes and moments of inertia in amu*Bohr^2:
                             1           2           3
    Eigenvalues --      340.48418   634.86525   800.52921
          X               0.94929    -0.07748     0.30470
          Y               0.18314     0.92403    -0.33561
          Z              -0.25554     0.37439     0.89136
   Rotational Symmetry Number is   1
   The Molecule is an Asymmetric Top
   Translational Enthalpy:        0.889 kcal/mol
   Rotational Enthalpy:           0.889 kcal/mol
   Vibrational Enthalpy:         63.286 kcal/mol
   gas constant (RT):             0.592 kcal/mol
   Translational Entropy:        39.471  cal/mol.K
   Rotational Entropy:           26.650  cal/mol.K
   Vibrational Entropy:          10.022  cal/mol.K

   Total Enthalpy:               65.656 kcal/mol
   Total Entropy:                76.144  cal/mol.K

 Total job time:  265.05s(wall), 259.88s(cpu)
        *  Thank you very much for using Q-Chem.  Have a nice day.  *
