 Q-Chem 5.0, Q-Chem, Inc., Pleasanton, CA (2017)
 Q-Chem 5.0.2 for Intel X86 EM64T Linux

User input:
--------------------------------------------------------------
$molecule
0 2
C        1.8690954104    0.1786068315   -0.0579114029
C        1.1101211323   -0.8839581598   -0.4169549550
C       -0.3006225739   -0.4768976705   -0.7001225457
C       -1.4336271719   -0.5912996406    0.2897930971
C       -0.0562397740    1.1823942423   -0.2425968851
N        1.1888335896    1.3874852843    0.0540422510
H        2.9406798539    0.1804647046    0.1177107617
H        1.5219187670   -1.8667248950   -0.6333966838
H       -0.5943251320   -0.8205311378   -1.7073141071
H       -2.3827320807   -1.0340214231   -0.0112764610
H       -0.8015606891    1.9792901976   -0.3039268526
C       -1.2796626992    0.2119906840    1.3342678951
H       -1.8332629253    0.5279543795    2.2067964667
$end

$rem
method                b3lyp
basis                 6-31g(d)
unrestricted          true
symmetry              off
sym_ignore            true
incdft                false
incfock               0
scf_convergence       8
thresh                14
jobtype               ts
scf_guess             read
scf_algorithm         diis
max_scf_cycles        100
geom_opt_max_cycles   500
geom_opt_dmax         100
geom_opt_tol_gradient 10
geom_opt_hessian      read
$end

--------------------------------------------------------------

    2    -286.7969166197      1.07E-09 Convergence criterion met
 Total energy in the final basis set = -286.79691662
   16    -286.8003975352      4.59E-09 Convergence criterion met
 Total energy in the final basis set = -286.80039754
   16    -286.8040137243      3.22E-09 Convergence criterion met
 Total energy in the final basis set = -286.80401372
   15    -286.8073035144      8.46E-09 Convergence criterion met
 Total energy in the final basis set = -286.80730351
   15    -286.8102078768      7.11E-09 Convergence criterion met
 Total energy in the final basis set = -286.81020788
   15    -286.8127493458      6.23E-09 Convergence criterion met
 Total energy in the final basis set = -286.81274935
   15    -286.8149742800      5.49E-09 Convergence criterion met
 Total energy in the final basis set = -286.81497428
   15    -286.8169331365      4.84E-09 Convergence criterion met
    9    -286.8287088107      8.52E-09 Convergence criterion met
 Total energy in the final basis set = -286.82870881
   10    -286.8287087745      5.43E-09 Convergence criterion met
 Total energy in the final basis set = -286.82870877
   10    -286.8287087963      5.17E-09 Convergence criterion met
 Total energy in the final basis set = -286.82870880
   10    -286.8287087131      6.40E-09 Convergence criterion met
 Total energy in the final basis set = -286.82870871
   10    -286.8287088024      3.15E-09 Convergence criterion met
 Total energy in the final basis set = -286.82870880
   11    -286.8287069678      4.77E-09 Convergence criterion met
 Total energy in the final basis set = -286.82870697

             Standard Nuclear Orientation (Angstroms)
    I     Atom           X                Y                Z
 ----------------------------------------------------------------
    1      C       1.8347822767     0.1051128593    -0.0229204164
    2      C       1.0274500349    -0.8691635764    -0.5138320822
    3      C      -0.3306554893    -0.2595557234    -0.7337914158
    4      C      -1.3361163282    -0.6472673112     0.3361325478
    5      C      -0.0420140191     1.1759097702    -0.2663812868
    6      N       1.2124671838     1.3526678722     0.1107846633
    7      H       2.8765237655     0.0094487672     0.2660783825
    8      H       1.2786030818    -1.9108774745    -0.6710676043
    9      H      -0.6993109980    -0.3501037548    -1.7661665449
   10      H      -1.8247419469    -1.6231257155     0.3859170044
   11      H      -0.6797063209     2.0272256051    -0.4874690546
   12      C      -1.4264236995     0.3593969153     1.1846833510
   13      H      -1.9422418337     0.6050851634     2.1071430344
 ----------------------------------------------------------------

   11    -286.8287088072      4.15E-09 Convergence criterion met
 Total energy in the final basis set = -286.82870881
 Final energy is   -286.828708807204
 **  OPTIMIZATION CONVERGED  **

                    Orbital Energies (a.u.)
 --------------------------------------------------------------

 Alpha MOs
 -- Occupied --
-14.327 -10.232 -10.213 -10.210 -10.209 -10.204 -10.197  -0.949
 -0.817  -0.749  -0.690  -0.599  -0.557  -0.540  -0.512  -0.476
 -0.428  -0.411  -0.384  -0.377  -0.348  -0.278  -0.266  -0.264
 -0.196

 Beta MOs
 -- Occupied --
-14.321 -10.235 -10.214 -10.209 -10.205 -10.197 -10.193  -0.942
 -0.808  -0.742  -0.685  -0.590  -0.554  -0.533  -0.507  -0.470
 -0.420  -0.409  -0.380  -0.375  -0.332  -0.265  -0.258  -0.243

          Ground-State Mulliken Net Atomic Charges

     Atom                 Charge (a.u.)    Spin (a.u.)
  --------------------------------------------------------
      1 C                     0.028905      -0.123703
      2 C                    -0.123278       0.267817
      3 C                    -0.207620       0.026172
      4 C                    -0.106538      -0.124756
      5 C                     0.022624      -0.208781
      6 N                    -0.359623       0.315742
      7 H                     0.141973       0.004525
      8 H                     0.143135      -0.012558
      9 H                     0.161590       0.011945
     10 H                     0.142597       0.047628
     11 H                     0.167273       0.019186
     12 C                    -0.164101       0.761280
     13 H                     0.153063       0.015503
  --------------------------------------------------------
  Sum of atomic charges =    -0.000000

                    Cartesian Multipole Moments
 -----------------------------------------------------------------
    Charge (ESU x 10^10)
                -0.0000
    Dipole Moment (Debye)
         X      -1.3170      Y      -1.9209      Z      -0.6967
       Tot       2.4310
    Quadrupole Moments (Debye-Ang)
        XX     -39.2973     XY      -3.4621     YY     -41.5766
        XZ      -0.9594     YZ      -0.2032     ZZ     -39.6464

 Total job time:  373.33s(wall), 1204.52s(cpu)
        *  Thank you very much for using Q-Chem.  Have a nice day.  *
