 Q-Chem 5.0, Q-Chem, Inc., Pleasanton, CA (2017)
 Q-Chem 5.0.2 for Intel X86 EM64T Linux

User input:
--------------------------------------------------------------
$molecule
0 2
C        1.6067110968    0.3811557007    0.2140302826
C        1.0946037201   -0.9610770705    0.4603631970
C       -0.0781877055   -1.4112979216   -0.0953355701
C       -1.3438292059    0.7148062540   -0.2688387834
C       -0.4312415469    1.5773140334    0.2816238794
N        0.9519684901    1.4932250988    0.1540622851
H        2.6860944612    0.4660508713    0.0472936596
H        1.7623287237   -1.6640580695    0.9459171912
H       -0.2896586875   -2.4798847454   -0.0241018620
H       -2.3798456273    1.0461693520   -0.3044966271
H       -0.7714491356    2.5132859298    0.7149929997
C       -1.0676824390   -0.6076464325   -0.7281654146
H       -1.7469670521   -1.0763798500   -1.4377010843
$end

$rem
method                b3lyp
basis                 6-31+g(d,p)
unrestricted          true
symmetry              off
sym_ignore            true
incdft                false
incfock               0
scf_convergence       8
thresh                14
jobtype               opt
scf_guess             read
scf_algorithm         diis
max_scf_cycles        100
geom_opt_max_cycles   300
$end

--------------------------------------------------------------

    2    -286.9324185927      2.84E-09 Convergence criterion met
 Total energy in the final basis set = -286.93241859
   15    -286.9361486695      9.98E-09 Convergence criterion met
 Total energy in the final basis set = -286.93614867
   16    -286.9390381667      3.07E-09 Convergence criterion met
 Total energy in the final basis set = -286.93903817
   16    -286.9412045504      4.22E-09 Convergence criterion met
 Total energy in the final basis set = -286.94120455
   16    -286.9427542881      7.21E-09 Convergence criterion met
 Total energy in the final basis set = -286.94275429
   16    -286.9438773580      9.90E-09 Convergence criterion met
 Total energy in the final basis set = -286.94387736
   16    -286.9447741860      8.41E-09 Convergence criterion met
 Total energy in the final basis set = -286.94477419
   16    -286.9454853793      7.78E-09 Convergence criterion met
   16    -286.9459465778      6.72E-09 Convergence criterion met
 Total energy in the final basis set = -286.94594658
   15    -286.9461378014      6.19E-09 Convergence criterion met
 Total energy in the final basis set = -286.94613780
   14    -286.9461878991      6.97E-09 Convergence criterion met
 Total energy in the final basis set = -286.94618790
   13    -286.9462047930      8.85E-09 Convergence criterion met
 Total energy in the final basis set = -286.94620479
   13    -286.9462127749      8.66E-09 Convergence criterion met
 Total energy in the final basis set = -286.94621277
   13    -286.9462145128      2.95E-09 Convergence criterion met
 Total energy in the final basis set = -286.94621451

             Standard Nuclear Orientation (Angstroms)
    I     Atom           X                Y                Z
 ----------------------------------------------------------------
    1      C       1.5848392421     0.3450957689     0.4811814549
    2      C       1.2055107614    -0.9576261673     0.2062194512
    3      C      -0.0857096521    -1.4419990125    -0.2115891963
    4      C      -1.3431703623     0.7295691099    -0.2829263121
    5      C      -0.3811051212     1.6456249209     0.1048028749
    6      N       0.9230407398     1.5265133921     0.4535682485
    7      H       2.6262241580     0.4664988684     0.7835607002
    8      H       1.9848566191    -1.7062588985     0.3234084263
    9      H      -0.1620470914    -2.5154766029    -0.3692242008
   10      H      -2.3227956750     1.1456685478    -0.5038033312
   11      H      -0.7215929515     2.6815038582     0.1439344907
   12      C      -1.2099217258    -0.6981182715    -0.4274060415
   13      H      -2.1052838489    -1.2293323631    -0.7420824118
 ----------------------------------------------------------------

   12    -286.9462150204      4.73E-09 Convergence criterion met
 Total energy in the final basis set = -286.94621502
 Final energy is   -286.946215020416
 **  OPTIMIZATION CONVERGED  **

                    Orbital Energies (a.u.)
 --------------------------------------------------------------

 Alpha MOs
 -- Occupied --
-14.337 -10.243 -10.243 -10.223 -10.222 -10.212 -10.212  -0.934
 -0.829  -0.795  -0.703  -0.678  -0.562  -0.547  -0.527  -0.458
 -0.449  -0.423  -0.405  -0.395  -0.358  -0.333  -0.310  -0.263
 -0.174

 Beta MOs
 -- Occupied --
-14.329 -10.245 -10.245 -10.222 -10.221 -10.208 -10.208  -0.923
 -0.820  -0.788  -0.692  -0.676  -0.557  -0.544  -0.524  -0.456
 -0.448  -0.420  -0.392  -0.384  -0.357  -0.307  -0.287  -0.254

          Ground-State Mulliken Net Atomic Charges

     Atom                 Charge (a.u.)    Spin (a.u.)
  --------------------------------------------------------
      1 C                    -0.235095      -0.115374
      2 C                     0.101231       0.372024
      3 C                    -0.165083       0.076425
      4 C                     0.101050       0.368382
      5 C                    -0.235014      -0.113283
      6 N                    -0.176568       0.375311
      7 H                     0.127031       0.003338
      8 H                     0.127365      -0.018747
      9 H                     0.132737      -0.006666
     10 H                     0.127367      -0.018595
     11 H                     0.126982       0.003241
     12 C                    -0.164732       0.080795
     13 H                     0.132730      -0.006851
  --------------------------------------------------------
  Sum of atomic charges =    -0.000000

                    Cartesian Multipole Moments
 -----------------------------------------------------------------
    Charge (ESU x 10^10)
                -0.0000
    Dipole Moment (Debye)
         X      -1.2050      Y      -1.9921      Z      -0.5959
       Tot       2.4032
    Quadrupole Moments (Debye-Ang)
        XX     -38.0441     XY      -4.0555     YY     -41.4066
        XZ       1.4398     YZ      -0.6511     ZZ     -44.8482

 Total job time:  447.23s(wall), 1285.65s(cpu)
        *  Thank you very much for using Q-Chem.  Have a nice day.  *
