 Q-Chem 5.0, Q-Chem, Inc., Pleasanton, CA (2017)
 Q-Chem 5.0.2 for Intel X86 EM64T Linux

User input:
--------------------------------------------------------------
$molecule
0 2
C        1.6001467524    0.3489082672    0.4301514786
C        1.2115734283   -0.9562291318    0.1797543043
C       -0.0928546554   -1.4431959535   -0.1907335979
C       -1.3504376679    0.7288335228   -0.2441763178
C       -0.3756399174    1.6476596892    0.1032134048
N        0.9386899421    1.5303951801    0.4121064916
H        2.6511267556    0.4722587728    0.6965076785
H        1.9942862146   -1.7040560990    0.2778812028
H       -0.1756262958   -2.5181548914   -0.3345487966
H       -2.3362211410    1.1439337688   -0.4377813854
H       -0.7139673448    2.6842468035    0.1427987902
C       -1.2228534929   -0.7003799856   -0.3777570061
H       -2.1282225777   -1.2342199431   -0.6574162470
$end

$rem
method                b3lyp
basis                 6-31+g(d,p)
unrestricted          true
symmetry              off
sym_ignore            true
incdft                false
incfock               0
scf_convergence       6
thresh                14
jobtype               sp
scf_guess             read
scf_algorithm         diis
max_scf_cycles        100
stability_analysis    true
max_cis_cycles        100
cis_n_roots           4
$end

--------------------------------------------------------------

             Standard Nuclear Orientation (Angstroms)
    I     Atom           X                Y                Z
 ----------------------------------------------------------------
    1      C       1.6001467524     0.3489082672     0.4301514786
    2      C       1.2115734283    -0.9562291318     0.1797543043
    3      C      -0.0928546554    -1.4431959535    -0.1907335979
    4      C      -1.3504376679     0.7288335228    -0.2441763178
    5      C      -0.3756399174     1.6476596892     0.1032134048
    6      N       0.9386899421     1.5303951801     0.4121064916
    7      H       2.6511267556     0.4722587728     0.6965076785
    8      H       1.9942862146    -1.7040560990     0.2778812028
    9      H      -0.1756262958    -2.5181548914    -0.3345487966
   10      H      -2.3362211410     1.1439337688    -0.4377813854
   11      H      -0.7139673448     2.6842468035     0.1427987902
   12      C      -1.2228534929    -0.7003799856    -0.3777570061
   13      H      -2.1282225777    -1.2342199431    -0.6574162470
 ----------------------------------------------------------------

    2    -286.9462127675      2.55E-09 Convergence criterion met
 Total energy in the final basis set = -286.94621277

         TDDFT/TDA Excitation Energies
 ---------------------------------------------------

 Excited state   1: excitation energy (eV) =    1.0208
 Total energy for state  1:                  -286.90870020 au
    <S**2>     :  0.7997
    Trans. Mom.: -0.0940 X   0.0614 Y  -0.0156 Z
    Strength   :     0.0003212232
    S(  1) --> V(  1) amplitude =  0.9918 alpha

 Excited state   2: excitation energy (eV) =    2.7831
 Total energy for state  2:                  -286.84393555 au
    <S**2>     :  0.7945
    Trans. Mom.: -0.0336 X  -0.0185 Y   0.1367 Z
    Strength   :     0.0013747298
    D( 24) --> S(  1) amplitude =  0.9905 beta

 Excited state   3: excitation energy (eV) =    3.2838
 Total energy for state  3:                  -286.82553560 au
    <S**2>     :  2.2775
    Trans. Mom.:  0.0009 X   0.0006 Y   0.0000 Z
    Strength   :     0.0000000925
    D( 24) --> V(  1) amplitude =  0.2679 alpha
    D( 24) --> V(  1) amplitude =  0.9610 beta

 Excited state   4: excitation energy (eV) =    3.4611
 Total energy for state  4:                  -286.81901932 au
    <S**2>     :  1.2445
    Trans. Mom.: -0.0009 X  -0.0003 Y  -0.0011 Z
    Strength   :     0.0000001829
    D( 24) --> V(  1) amplitude =  0.9606 alpha
    D( 24) --> V(  1) amplitude = -0.2690 beta

 ---------------------------------------------------

                    Orbital Energies (a.u.)
 --------------------------------------------------------------

 Alpha MOs
 -- Occupied --
-14.337 -10.243 -10.243 -10.223 -10.222 -10.212 -10.212  -0.934
 -0.829  -0.795  -0.703  -0.678  -0.562  -0.547  -0.527  -0.458
 -0.449  -0.423  -0.405  -0.395  -0.359  -0.333  -0.310  -0.263
 -0.174

 Beta MOs
 -- Occupied --
-14.329 -10.245 -10.245 -10.222 -10.221 -10.208 -10.208  -0.923
 -0.820  -0.788  -0.692  -0.676  -0.557  -0.544  -0.524  -0.456
 -0.448  -0.420  -0.392  -0.384  -0.357  -0.307  -0.287  -0.254

          Ground-State Mulliken Net Atomic Charges

     Atom                 Charge (a.u.)    Spin (a.u.)
  --------------------------------------------------------
      1 C                    -0.235244      -0.115706
      2 C                     0.101336       0.372724
      3 C                    -0.164909       0.075688
      4 C                     0.101190       0.367883
      5 C                    -0.235212      -0.112920
      6 N                    -0.176414       0.375070
      7 H                     0.127017       0.003354
      8 H                     0.127370      -0.018776
      9 H                     0.132731      -0.006637
     10 H                     0.127380      -0.018574
     11 H                     0.126968       0.003223
     12 C                    -0.164922       0.081558
     13 H                     0.132710      -0.006887
  --------------------------------------------------------
  Sum of atomic charges =    -0.000000

                    Cartesian Multipole Moments
 -----------------------------------------------------------------
    Charge (ESU x 10^10)
                 0.0000
    Dipole Moment (Debye)
         X      -1.2243      Y      -1.9957      Z      -0.5382
       Tot       2.4024
    Quadrupole Moments (Debye-Ang)
        XX     -37.9635     XY      -4.0642     YY     -41.4130
        XZ       1.2483     YZ      -0.5656     ZZ     -44.9290

 Total job time:  209.90s(wall), 186.80s(cpu)
        *  Thank you very much for using Q-Chem.  Have a nice day.  *
