 Q-Chem 5.0, Q-Chem, Inc., Pleasanton, CA (2017)
 Q-Chem 5.0.2 for Intel X86 EM64T Linux

User input:
--------------------------------------------------------------
$molecule
0 2
C        1.5873289585    0.3105980964    0.1000687428
C        1.0214047612   -0.9092646147    0.2867349057
C       -0.4302157509   -1.0999914516    0.1749640934
C       -1.2458170961    0.2948107366    0.0320547059
C       -0.4044589831    1.4971746462    0.1666984895
N        0.8857736128    1.5204628525    0.0967223321
H        2.6671638611    0.4237109492    0.0869528804
H        1.6445635492   -1.7664400755    0.5274819332
H       -0.9030193638   -1.8931835179    0.7535143566
H       -2.2320609298    0.3377942611    0.4962566867
H       -0.9067044450    2.4388871050    0.3952845511
C       -1.0619798708   -0.6509441857   -1.0684442062
H       -0.6219783030   -0.5036148017   -2.0482894714
$end

$rem
method                b3lyp
basis                 6-31+g(d,p)
unrestricted          true
symmetry              off
sym_ignore            true
incdft                false
incfock               0
scf_convergence       8
thresh                14
jobtype               sp
scf_guess             core
scf_guess_mix         5
scf_algorithm         diis
max_scf_cycles        100
$end

--------------------------------------------------------------

             Standard Nuclear Orientation (Angstroms)
    I     Atom           X                Y                Z
 ----------------------------------------------------------------
    1      C       1.5873289585     0.3105980964     0.1000687428
    2      C       1.0214047612    -0.9092646147     0.2867349057
    3      C      -0.4302157509    -1.0999914516     0.1749640934
    4      C      -1.2458170961     0.2948107366     0.0320547059
    5      C      -0.4044589831     1.4971746462     0.1666984895
    6      N       0.8857736128     1.5204628525     0.0967223321
    7      H       2.6671638611     0.4237109492     0.0869528804
    8      H       1.6445635492    -1.7664400755     0.5274819332
    9      H      -0.9030193638    -1.8931835179     0.7535143566
   10      H      -2.2320609298     0.3377942611     0.4962566867
   11      H      -0.9067044450     2.4388871050     0.3952845511
   12      C      -1.0619798708    -0.6509441857    -1.0684442062
   13      H      -0.6219783030    -0.5036148017    -2.0482894714
 ----------------------------------------------------------------

   22    -286.8779315940      5.11E-09 Convergence criterion met
 Total energy in the final basis set = -286.87793159

                    Orbital Energies (a.u.)
 --------------------------------------------------------------

 Alpha MOs
 -- Occupied --
-14.339 -10.241 -10.233 -10.233 -10.230 -10.221 -10.206  -0.948
 -0.879  -0.777  -0.673  -0.649  -0.591  -0.531  -0.508  -0.494
 -0.450  -0.437  -0.391  -0.386  -0.369  -0.308  -0.266  -0.249
 -0.230

 Beta MOs
 -- Occupied --
-14.338 -10.240 -10.233 -10.230 -10.220 -10.219 -10.206  -0.946
 -0.870  -0.775  -0.665  -0.647  -0.578  -0.524  -0.503  -0.489
 -0.445  -0.434  -0.387  -0.383  -0.362  -0.300  -0.262  -0.238

          Ground-State Mulliken Net Atomic Charges

     Atom                 Charge (a.u.)    Spin (a.u.)
  --------------------------------------------------------
      1 C                    -0.303872       0.043463
      2 C                     0.092892      -0.004259
      3 C                    -0.180055      -0.058021
      4 C                     0.021242      -0.064800
      5 C                    -0.112149       0.043581
      6 N                    -0.171012       0.013231
      7 H                     0.126387      -0.002455
      8 H                     0.133984       0.002962
      9 H                     0.151492       0.025657
     10 H                     0.152464       0.038553
     11 H                     0.129861       0.001345
     12 C                    -0.195988       0.978450
     13 H                     0.154754      -0.017708
  --------------------------------------------------------
  Sum of atomic charges =    -0.000000

                    Cartesian Multipole Moments
 -----------------------------------------------------------------
    Charge (ESU x 10^10)
                 0.0000
    Dipole Moment (Debye)
         X      -1.3573      Y      -1.6841      Z       0.2365
       Tot       2.1759
    Quadrupole Moments (Debye-Ang)
        XX     -40.1975     XY      -4.5700     YY     -43.6984
        XZ      -1.5446     YZ      -1.0754     ZZ     -42.1494

 Total job time:  37.25s(wall), 113.39s(cpu)
        *  Thank you very much for using Q-Chem.  Have a nice day.  *
