 Q-Chem 5.0, Q-Chem, Inc., Pleasanton, CA (2017)
 Q-Chem 5.0.2 for Intel X86 EM64T Linux

User input:
--------------------------------------------------------------
$molecule
0 2
C        1.5698287221    0.3059185705    0.0276669261
C        1.0245862081   -0.9359079281    0.2906999428
C       -0.3677533043   -1.2065008643    0.1217995117
C       -1.3125382343    0.3907581754   -0.0317549133
C       -0.4262751271    1.4973868521    0.1648492049
N        0.8792844311    1.4866429071    0.0156791338
H        2.6509207844    0.4234625315    0.0281015801
H        1.6618474589   -1.7121581752    0.7085142621
H       -0.8570202939   -1.9854748250    0.7059561479
H       -2.2931518705    0.4191709408    0.4450236353
H       -0.8607927617    2.4291068620    0.5303548196
C       -1.0432542936   -0.6297242792   -1.0257349426
H       -0.6328366286   -0.4910176243   -2.0215111573
$end

$rem
method                b3lyp
basis                 6-31+g(d,p)
unrestricted          true
symmetry              off
sym_ignore            true
incdft                false
incfock               0
scf_convergence       8
thresh                14
jobtype               sp
scf_guess             read
scf_algorithm         diis
max_scf_cycles        100
scf_final_print       1
$end

--------------------------------------------------------------

             Standard Nuclear Orientation (Angstroms)
    I     Atom           X                Y                Z
 ----------------------------------------------------------------
    1      C       1.5698287221     0.3059185705     0.0276669261
    2      C       1.0245862081    -0.9359079281     0.2906999428
    3      C      -0.3677533043    -1.2065008643     0.1217995117
    4      C      -1.3125382343     0.3907581754    -0.0317549133
    5      C      -0.4262751271     1.4973868521     0.1648492049
    6      N       0.8792844311     1.4866429071     0.0156791338
    7      H       2.6509207844     0.4234625315     0.0281015801
    8      H       1.6618474589    -1.7121581752     0.7085142621
    9      H      -0.8570202939    -1.9854748250     0.7059561479
   10      H      -2.2931518705     0.4191709408     0.4450236353
   11      H      -0.8607927617     2.4291068620     0.5303548196
   12      C      -1.0432542936    -0.6297242792    -1.0257349426
   13      H      -0.6328366286    -0.4910176243    -2.0215111573
 ----------------------------------------------------------------

    2    -286.8753051826      2.58E-09 Convergence criterion met
 Total energy in the final basis set = -286.87530518

                    Orbital Energies (a.u.)
 --------------------------------------------------------------

 Alpha MOs
 -- Occupied --
-14.337 -10.240 -10.236 -10.234 -10.232 -10.224 -10.205  -0.943
 -0.864  -0.782  -0.680  -0.660  -0.584  -0.527  -0.508  -0.499
 -0.455  -0.440  -0.399  -0.389  -0.377  -0.286  -0.265  -0.249
 -0.229

 Beta MOs
 -- Occupied --
-14.337 -10.241 -10.235 -10.234 -10.223 -10.218 -10.205  -0.941
 -0.853  -0.779  -0.670  -0.658  -0.573  -0.521  -0.502  -0.494
 -0.452  -0.434  -0.396  -0.382  -0.375  -0.278  -0.264  -0.237

          Ground-State Mulliken Net Atomic Charges

     Atom                 Charge (a.u.)    Spin (a.u.)
  --------------------------------------------------------
      1 C                    -0.318352       0.019936
      2 C                     0.092223       0.013036
      3 C                    -0.194520      -0.061372
      4 C                    -0.029043      -0.062369
      5 C                    -0.150301       0.039817
      6 N                    -0.166273       0.019246
      7 H                     0.125022      -0.001698
      8 H                     0.138532       0.005289
      9 H                     0.153523       0.025833
     10 H                     0.153255       0.037077
     11 H                     0.132151       0.003356
     12 C                    -0.093019       0.986063
     13 H                     0.156801      -0.024215
  --------------------------------------------------------
  Sum of atomic charges =     0.000000

                    Cartesian Multipole Moments
 -----------------------------------------------------------------
    Charge (ESU x 10^10)
                 0.0000
    Dipole Moment (Debye)
         X      -1.4426      Y      -1.8661      Z       0.3906
       Tot       2.3908
    Quadrupole Moments (Debye-Ang)
        XX     -40.0068     XY      -4.1225     YY     -43.7197
        XZ      -1.0298     YZ      -0.8133     ZZ     -42.2322

 Total job time:  8.84s(wall), 11.97s(cpu)
        *  Thank you very much for using Q-Chem.  Have a nice day.  *
