 Q-Chem 5.0, Q-Chem, Inc., Pleasanton, CA (2017)
 Q-Chem 5.0.2 for Intel X86 EM64T Linux

User input:
--------------------------------------------------------------
$molecule
0 2
C        1.5870922044    0.3115604780    0.1270621950
C        1.0216973181   -0.9083644076    0.2852620208
C       -0.4326742381   -1.0946927352    0.1723535709
C       -1.2406018929    0.2900485956    0.0321669176
C       -0.4008943868    1.4972131700    0.1614605217
N        0.8875884347    1.5238814995    0.1177335498
H        2.6680929546    0.4249158790    0.1305924177
H        1.6435308272   -1.7753129695    0.4939677920
H       -0.9030216505   -1.8894934151    0.7522987312
H       -2.2267824469    0.3360892166    0.4975376360
H       -0.9119774583    2.4428661887    0.3566098668
C       -1.0662001840   -0.6536052872   -1.0736765122
H       -0.6258494821   -0.5051062126   -2.0533687076
****
C        1.5953155399    0.3477177744    0.4385640738
C        1.2097611218   -0.9556693593    0.1859892014
C       -0.0919509541   -1.4409605565   -0.1954368236
C       -1.3483283966    0.7293698451   -0.2472354693
C       -0.3743724103    1.6451857143    0.1025696435
N        0.9378287808    1.5303270686    0.4157697933
H        2.6451874619    0.4694992919    0.7143865431
H        1.9900469680   -1.7057416924    0.2903215288
H       -0.1720895309   -2.5159998589   -0.3441110629
H       -2.3346214983    1.1434292631   -0.4425944503
H       -0.7135511924    2.6826988434    0.1409379077
C       -1.2193138396   -0.6989513609   -0.3857749139
H       -2.1239120501   -1.2309049727   -0.6733859717
$end

$rem
method                b3lyp
basis                 6-31g(d)
unrestricted          true
symmetry              off
sym_ignore            true
incdft                false
incfock               0
scf_convergence       8
thresh                14
jobtype               fsm
scf_guess             core
scf_guess_mix         5
scf_algorithm         diis
max_scf_cycles        100
fsm_nnode             21
fsm_ngrad             6
fsm_mode              2
fsm_opt_mode          2
$end

--------------------------------------------------------------

   23    -286.8568466570      3.01E-09 Convergence criterion met
 Total energy in the final basis set = -286.85684666
   23    -286.9243504392      3.48E-09 Convergence criterion met
 Total energy in the final basis set = -286.92435044
   22    -286.8556842374      6.50E-09 Convergence criterion met
 Total energy in the final basis set = -286.85568424
   22    -286.8553485462      6.09E-09 Convergence criterion met
 Total energy in the final basis set = -286.85534855
   22    -286.8540647059      7.89E-09 Convergence criterion met
 Total energy in the final basis set = -286.85406471
   22    -286.8505171278      7.79E-09 Convergence criterion met
 Total energy in the final basis set = -286.85051713
   23    -286.8539248180      3.44E-09 Convergence criterion met
 Total energy in the final basis set = -286.85392482
   23    -286.9236158314      6.01E-09 Convergence criterion met
 Total energy in the final basis set = -286.84538562
   22    -286.8454784494      4.68E-09 Convergence criterion met
 Total energy in the final basis set = -286.84547845
   22    -286.8453990904      4.84E-09 Convergence criterion met
 Total energy in the final basis set = -286.84539909
   22    -286.8454656275      4.71E-09 Convergence criterion met
 Total energy in the final basis set = -286.84546563
   22    -286.8454143725      4.83E-09 Convergence criterion met
 Total energy in the final basis set = -286.84541437
   22    -286.8454514072      4.72E-09 Convergence criterion met
 Total energy in the final basis set = -286.84545141
   22    -286.8454282709      4.83E-09 Convergence criterion met
 Total energy in the final basis set = -286.84542827
   22    -286.8454384359      4.72E-09 Convergence criterion met
 Total energy in the final basis set = -286.84543844

                    Orbital Energies (a.u.)
 --------------------------------------------------------------

 Alpha MOs
 -- Occupied --
-14.322 -10.233 -10.226 -10.224 -10.216 -10.210 -10.197  -0.923
 -0.847  -0.773  -0.672  -0.653  -0.568  -0.522  -0.497  -0.494
 -0.443  -0.433  -0.384  -0.374  -0.370  -0.262  -0.256  -0.237
 -0.214

 Beta MOs
 -- Occupied --
-14.322 -10.233 -10.225 -10.224 -10.210 -10.202 -10.195  -0.922
 -0.834  -0.770  -0.663  -0.649  -0.555  -0.516  -0.492  -0.487
 -0.439  -0.428  -0.378  -0.371  -0.368  -0.261  -0.250  -0.234

          Ground-State Mulliken Net Atomic Charges

     Atom                 Charge (a.u.)    Spin (a.u.)
  --------------------------------------------------------
      1 C                    -0.003354      -0.003852
      2 C                    -0.085191       0.031902
      3 C                    -0.179189      -0.048067
      4 C                    -0.194316      -0.057682
      5 C                     0.071565       0.029237
      6 N                    -0.398013      -0.000335
      7 H                     0.136304       0.000351
      8 H                     0.142037       0.007488
      9 H                     0.160384       0.030533
     10 H                     0.159434       0.034328
     11 H                     0.141357       0.008072
     12 C                    -0.111783       0.998737
     13 H                     0.160763      -0.030710
  --------------------------------------------------------
  Sum of atomic charges =     0.000000

                    Cartesian Multipole Moments
 -----------------------------------------------------------------
    Charge (ESU x 10^10)
                -0.0000
    Dipole Moment (Debye)
         X      -1.4246      Y      -1.9885      Z      -0.2480
       Tot       2.4587
    Quadrupole Moments (Debye-Ang)
        XX     -38.5033     XY      -4.1053     YY     -41.5306
        XZ       0.0817     YZ      -0.5163     ZZ     -41.1395

             Standard Nuclear Orientation (Angstroms)
    I     Atom           X                Y                Z
 ----------------------------------------------------------------
    1      C       1.6111704990     0.3358593785     0.1605825598
    2      C       1.0628683565    -0.9080813184     0.2815581989
    3      C      -0.3290686396    -1.2123456998     0.0898206076
    4      C      -1.2885989277     0.4193146227    -0.0296383863
    5      C      -0.3825184481     1.5144614431     0.1621444326
    6      N       0.9272854959     1.5299721336     0.1302061722
    7      H       2.6873589480     0.4566735318     0.2703350687
    8      H       1.7101194559    -1.7349458821     0.5683416955
    9      H      -0.7262795607    -2.0885155966     0.6118896774
   10      H      -2.2903398816     0.5565190679     0.3794029279
   11      H      -0.8521649083     2.4733461088     0.4062682571
   12      C      -1.0830336906    -0.6417582912    -0.9961770118
   13      H      -1.0539536082    -0.7088363548    -2.0750900486
 ----------------------------------------------------------------

 Total job time:  2466.02s(wall), 4584.78s(cpu)
        *  Thank you very much for using Q-Chem.  Have a nice day.  *
