 Q-Chem 5.0, Q-Chem, Inc., Pleasanton, CA (2017)
 Q-Chem 5.0.2 for Intel X86 EM64T Linux

User input:
--------------------------------------------------------------
$molecule
0 2
C        1.5698287221    0.3059185705    0.0276669261
C        1.0245862081   -0.9359079281    0.2906999428
C       -0.3677533043   -1.2065008643    0.1217995117
C       -1.3125382343    0.3907581754   -0.0317549133
C       -0.4262751271    1.4973868521    0.1648492049
N        0.8792844311    1.4866429071    0.0156791338
H        2.6509207844    0.4234625315    0.0281015801
H        1.6618474589   -1.7121581752    0.7085142621
H       -0.8570202939   -1.9854748250    0.7059561479
H       -2.2931518705    0.4191709408    0.4450236353
H       -0.8607927617    2.4291068620    0.5303548196
C       -1.0432542936   -0.6297242792   -1.0257349426
H       -0.6328366286   -0.4910176243   -2.0215111573
$end

$rem
method                b3lyp
basis                 6-31+g(d,p)
unrestricted          true
symmetry              off
sym_ignore            true
incdft                false
incfock               0
scf_convergence       8
thresh                14
jobtype               rpath
scf_guess             core
scf_guess_mix         5
scf_algorithm         diis
max_scf_cycles        100
rpath_direction       1
rpath_tol_displacement 1000
rpath_max_cycles      50
geom_opt_max_cycles   300
geom_opt_hessian      read
$end

--------------------------------------------------------------

   22    -286.8753051825      6.20E-09 Convergence criterion met
 Total energy in the final basis set = -286.87530518
   22    -286.8756599926      7.64E-09 Convergence criterion met
 Total energy in the final basis set = -286.87565999
   22    -286.8753953398      7.44E-09 Convergence criterion met
 Total energy in the final basis set = -286.87539534
   22    -286.8756603513      7.64E-09 Convergence criterion met
 Total energy in the final basis set = -286.87566035
   22    -286.8763198321      7.16E-09 Convergence criterion met
 Total energy in the final basis set = -286.87631983
   22    -286.8740133010      6.69E-09 Convergence criterion met
 Total energy in the final basis set = -286.87401330
   22    -286.8763826303      7.04E-09 Convergence criterion met
 Total energy in the final basis set = -286.87638263
   22    -286.8739321694      6.15E-09 Convergence criterion met
 Total energy in the final basis set = -286.93112361
   24    -286.9314032724      3.55E-09 Convergence criterion met
 Total energy in the final basis set = -286.93140327
   23    -286.9311891730      6.87E-09 Convergence criterion met
 Total energy in the final basis set = -286.93118917
   23    -286.9316504091      4.68E-09 Convergence criterion met
 Total energy in the final basis set = -286.93165041
   23    -286.9318456388      6.25E-09 Convergence criterion met
 Total energy in the final basis set = -286.93184564
   23    -286.9321975484      6.10E-09 Convergence criterion met
 Total energy in the final basis set = -286.93219755
   23    -286.9318586946      5.71E-09 Convergence criterion met
 Total energy in the final basis set = -286.93185869
   23    -286.9324185927      6.47E-09 Convergence criterion met
 Total energy in the final basis set = -286.93241859

                    Orbital Energies (a.u.)
 --------------------------------------------------------------

 Alpha MOs
 -- Occupied --
-14.350 -10.249 -10.230 -10.224 -10.212 -10.211 -10.210  -0.945
 -0.826  -0.793  -0.693  -0.673  -0.559  -0.543  -0.523  -0.462
 -0.449  -0.432  -0.426  -0.391  -0.352  -0.316  -0.303  -0.263
 -0.176

 Beta MOs
 -- Occupied --
-14.348 -10.249 -10.226 -10.225 -10.213 -10.205 -10.204  -0.939
 -0.818  -0.786  -0.678  -0.673  -0.554  -0.539  -0.520  -0.459
 -0.445  -0.428  -0.415  -0.386  -0.346  -0.298  -0.287  -0.253

          Ground-State Mulliken Net Atomic Charges

     Atom                 Charge (a.u.)    Spin (a.u.)
  --------------------------------------------------------
      1 C                    -0.164664      -0.077940
      2 C                    -0.030262       0.427915
      3 C                    -0.146679      -0.214018
      4 C                     0.068933      -0.162275
      5 C                    -0.273370       0.322061
      6 N                    -0.135375       0.106224
      7 H                     0.132699       0.001567
      8 H                     0.132737      -0.018853
      9 H                     0.138205       0.022795
     10 H                     0.135048       0.017443
     11 H                     0.129695      -0.016930
     12 C                    -0.117993       0.622428
     13 H                     0.131026      -0.030415
  --------------------------------------------------------
  Sum of atomic charges =    -0.000000

                    Cartesian Multipole Moments
 -----------------------------------------------------------------
    Charge (ESU x 10^10)
                -0.0000
    Dipole Moment (Debye)
         X      -0.7525      Y      -1.8437      Z       0.1188
       Tot       1.9949
    Quadrupole Moments (Debye-Ang)
        XX     -38.1175     XY      -3.6012     YY     -41.9256
        XZ       1.7454     YZ       0.8084     ZZ     -43.7245

             Standard Nuclear Orientation (Angstroms)
    I     Atom           X                Y                Z
 ----------------------------------------------------------------
    1      C       1.5698287221     0.3059185705     0.0276669261
    2      C       1.0245862081    -0.9359079281     0.2906999428
    3      C      -0.3677533043    -1.2065008643     0.1217995117
    4      C      -1.3125382343     0.3907581754    -0.0317549133
    5      C      -0.4262751271     1.4973868521     0.1648492049
    6      N       0.8792844311     1.4866429071     0.0156791338
    7      H       2.6509207844     0.4234625315     0.0281015801
    8      H       1.6618474589    -1.7121581752     0.7085142621
    9      H      -0.8570202939    -1.9854748250     0.7059561479
   10      H      -2.2931518705     0.4191709408     0.4450236353
   11      H      -0.8607927617     2.4291068620     0.5303548196
   12      C      -1.0432542936    -0.6297242792    -1.0257349426
   13      H      -0.6328366286    -0.4910176243    -2.0215111573
 ----------------------------------------------------------------

 Total job time:  11641.12s(wall), 32445.16s(cpu)
        *  Thank you very much for using Q-Chem.  Have a nice day.  *
