 Q-Chem 5.0, Q-Chem, Inc., Pleasanton, CA (2017)
 Q-Chem 5.0.2 for Intel X86 EM64T Linux

User input:
--------------------------------------------------------------
$molecule
0 2
C        1.5870652534    0.3115518464    0.1267216970
C        1.0215815176   -0.9083749137    0.2855610216
C       -0.4329636366   -1.0944262623    0.1727617238
C       -1.2410022657    0.2902820537    0.0321549352
C       -0.4009609007    1.4970703397    0.1630320294
N        0.8875236918    1.5238103250    0.1176442601
H        2.6680848805    0.4248334914    0.1289018472
H        1.6433408653   -1.7754195058    0.4940218413
H       -0.9035079651   -1.8892285098    0.7524279463
H       -2.2274361209    0.3356255424    0.4971265749
H       -0.9119776441    2.4430759432    0.3566101985
C       -1.0653034798   -0.6536244720   -1.0737404309
H       -0.6244441963   -0.5051758780   -2.0532236450
$end

$rem
method                b3lyp
basis                 6-31g(d)
unrestricted          true
symmetry              off
sym_ignore            true
incdft                false
incfock               0
scf_convergence       8
thresh                14
jobtype               opt
scf_guess             core
scf_guess_mix         5
scf_algorithm         diis
max_scf_cycles        100
geom_opt_max_cycles   300
$end

--------------------------------------------------------------

   23    -286.8568459332      3.03E-09 Convergence criterion met
 Total energy in the final basis set = -286.85684593

             Standard Nuclear Orientation (Angstroms)
    I     Atom           X                Y                Z
 ----------------------------------------------------------------
    1      C       1.5870922044     0.3115604780     0.1270621950
    2      C       1.0216973181    -0.9083644076     0.2852620208
    3      C      -0.4326742381    -1.0946927352     0.1723535709
    4      C      -1.2406018929     0.2900485956     0.0321669176
    5      C      -0.4008943868     1.4972131700     0.1614605217
    6      N       0.8875884347     1.5238814995     0.1177335498
    7      H       2.6680929546     0.4249158790     0.1305924177
    8      H       1.6435308272    -1.7753129695     0.4939677920
    9      H      -0.9030216505    -1.8894934151     0.7522987312
   10      H      -2.2267824469     0.3360892166     0.4975376360
   11      H      -0.9119774583     2.4428661887     0.3566098668
   12      C      -1.0662001840    -0.6536052872    -1.0736765122
   13      H      -0.6258494821    -0.5051062126    -2.0533687076
 ----------------------------------------------------------------

   17    -286.8568466570      3.39E-09 Convergence criterion met
 Total energy in the final basis set = -286.85684666
 Final energy is   -286.856846657026
 **  OPTIMIZATION CONVERGED  **

                    Orbital Energies (a.u.)
 --------------------------------------------------------------

 Alpha MOs
 -- Occupied --
-14.325 -10.231 -10.222 -10.222 -10.219 -10.210 -10.195  -0.937
 -0.869  -0.766  -0.663  -0.639  -0.583  -0.522  -0.498  -0.486
 -0.442  -0.427  -0.381  -0.375  -0.358  -0.299  -0.254  -0.238
 -0.220

 Beta MOs
 -- Occupied --
-14.324 -10.230 -10.222 -10.219 -10.209 -10.208 -10.195  -0.934
 -0.860  -0.764  -0.655  -0.637  -0.569  -0.516  -0.493  -0.481
 -0.437  -0.424  -0.377  -0.372  -0.351  -0.291  -0.250  -0.227

          Ground-State Mulliken Net Atomic Charges

     Atom                 Charge (a.u.)    Spin (a.u.)
  --------------------------------------------------------
      1 C                    -0.015692       0.044509
      2 C                    -0.092976      -0.010987
      3 C                    -0.177737      -0.036763
      4 C                    -0.200869      -0.046166
      5 C                     0.083469       0.048952
      6 N                    -0.392329       0.010685
      7 H                     0.137887      -0.002340
      8 H                     0.139635       0.003108
      9 H                     0.161358       0.023698
     10 H                     0.162776       0.036057
     11 H                     0.143865       0.001436
     12 C                    -0.115269       0.946965
     13 H                     0.165881      -0.019155
  --------------------------------------------------------
  Sum of atomic charges =     0.000000

                    Cartesian Multipole Moments
 -----------------------------------------------------------------
    Charge (ESU x 10^10)
                 0.0000
    Dipole Moment (Debye)
         X      -1.2228      Y      -1.5543      Z       0.1520
       Tot       1.9835
    Quadrupole Moments (Debye-Ang)
        XX     -38.9402     XY      -4.0952     YY     -42.1582
        XZ      -1.3380     YZ      -0.9888     ZZ     -40.8469

 Total job time:  70.26s(wall), 122.82s(cpu)
        *  Thank you very much for using Q-Chem.  Have a nice day.  *
