 Q-Chem 5.0, Q-Chem, Inc., Pleasanton, CA (2017)
 Q-Chem 5.0.2 for Intel X86 EM64T Linux

User input:
--------------------------------------------------------------
$molecule
0 2
C        1.5648095227    0.3048914747    0.0235933355
C        1.0240268137   -0.9381479498    0.2910954512
C       -0.3629757636   -1.2134585017    0.1197093303
C       -1.3169449344    0.3973856552   -0.0345343821
C       -0.4277473817    1.4959225523    0.1639445795
N        0.8775844119    1.4834852468    0.0109339264
H        2.6472489530    0.4224683991    0.0216519709
H        1.6632111897   -1.7094665539    0.7161725188
H       -0.8522989283   -1.9928670905    0.7043253216
H       -2.2986960649    0.4270079013    0.4408609915
H       -0.8578519497    2.4280950330    0.5360782575
C       -1.0432680616   -0.6290720730   -1.0210526787
H       -0.6242527164   -0.4845809500   -2.0131344715
$end

$rem
method                b3lyp
basis                 6-31+g(d,p)
unrestricted          true
symmetry              off
sym_ignore            true
incdft                false
incfock               0
scf_convergence       6
thresh                14
jobtype               sp
scf_guess             read
scf_algorithm         diis
max_scf_cycles        100
stability_analysis    true
max_cis_cycles        100
cis_n_roots           4
$end

--------------------------------------------------------------

             Standard Nuclear Orientation (Angstroms)
    I     Atom           X                Y                Z
 ----------------------------------------------------------------
    1      C       1.5648095227     0.3048914747     0.0235933355
    2      C       1.0240268137    -0.9381479498     0.2910954512
    3      C      -0.3629757636    -1.2134585017     0.1197093303
    4      C      -1.3169449344     0.3973856552    -0.0345343821
    5      C      -0.4277473817     1.4959225523     0.1639445795
    6      N       0.8775844119     1.4834852468     0.0109339264
    7      H       2.6472489530     0.4224683991     0.0216519709
    8      H       1.6632111897    -1.7094665539     0.7161725188
    9      H      -0.8522989283    -1.9928670905     0.7043253216
   10      H      -2.2986960649     0.4270079013     0.4408609915
   11      H      -0.8578519497     2.4280950330     0.5360782575
   12      C      -1.0432680616    -0.6290720730    -1.0210526787
   13      H      -0.6242527164    -0.4845809500    -2.0131344715
 ----------------------------------------------------------------

    2    -286.8753092163      4.92E-09 Convergence criterion met
 Total energy in the final basis set = -286.87530922

         TDDFT/TDA Excitation Energies
 ---------------------------------------------------

 Excited state   1: excitation energy (eV) =    2.5273
 Total energy for state  1:                  -286.78243147 au
    <S**2>     :  0.9315
    Trans. Mom.:  0.0469 X   0.3191 Y   0.1035 Z
    Strength   :     0.0071043497
    D( 24) --> S(  1) amplitude =  0.9685 beta

 Excited state   2: excitation energy (eV) =    3.2961
 Total energy for state  2:                  -286.75418013 au
    <S**2>     :  0.8807
    Trans. Mom.:  0.0663 X   0.0254 Y   0.0732 Z
    Strength   :     0.0008398347
    D( 22) --> S(  1) amplitude = -0.4260 beta
    D( 23) --> S(  1) amplitude =  0.8873 beta

 Excited state   3: excitation energy (eV) =    3.4808
 Total energy for state  3:                  -286.74739165 au
    <S**2>     :  0.9598
    Trans. Mom.: -0.1862 X  -0.1297 Y  -0.1102 Z
    Strength   :     0.0054268509
    S(  1) --> V(  1) amplitude = -0.1682 alpha
    D( 22) --> S(  1) amplitude =  0.8667 beta
    D( 23) --> S(  1) amplitude =  0.3928 beta

 Excited state   4: excitation energy (eV) =    3.6556
 Total energy for state  4:                  -286.74096849 au
    <S**2>     :  2.4494
    Trans. Mom.: -0.0613 X  -0.1903 Y  -0.0547 Z
    Strength   :     0.0038481822
    D( 24) --> V(  1) amplitude = -0.3754 alpha
    S(  1) --> V(  1) amplitude =  0.5944 alpha
    S(  1) --> V(  2) amplitude = -0.1596 alpha
    D( 24) --> S(  1) amplitude = -0.1775 beta
    D( 24) --> V(  1) amplitude = -0.5783 beta
    D( 24) --> V(  2) amplitude =  0.1949 beta

 ---------------------------------------------------

                    Orbital Energies (a.u.)
 --------------------------------------------------------------

 Alpha MOs
 -- Occupied --
-14.337 -10.240 -10.235 -10.234 -10.232 -10.224 -10.205  -0.944
 -0.863  -0.783  -0.680  -0.661  -0.583  -0.527  -0.509  -0.499
 -0.456  -0.439  -0.400  -0.390  -0.377  -0.286  -0.266  -0.249
 -0.229

 Beta MOs
 -- Occupied --
-14.337 -10.241 -10.234 -10.234 -10.224 -10.218 -10.204  -0.941
 -0.852  -0.780  -0.670  -0.659  -0.572  -0.521  -0.503  -0.493
 -0.453  -0.434  -0.396  -0.383  -0.374  -0.277  -0.265  -0.237

          Ground-State Mulliken Net Atomic Charges

     Atom                 Charge (a.u.)    Spin (a.u.)
  --------------------------------------------------------
      1 C                    -0.320274       0.018425
      2 C                     0.094324       0.014092
      3 C                    -0.196779      -0.061291
      4 C                    -0.031758      -0.061176
      5 C                    -0.152548       0.039046
      6 N                    -0.165174       0.019918
      7 H                     0.124626      -0.001638
      8 H                     0.138951       0.005384
      9 H                     0.153356       0.025604
     10 H                     0.153115       0.036602
     11 H                     0.132096       0.003442
     12 C                    -0.087267       0.985680
     13 H                     0.157331      -0.024087
  --------------------------------------------------------
  Sum of atomic charges =    -0.000000

                    Cartesian Multipole Moments
 -----------------------------------------------------------------
    Charge (ESU x 10^10)
                 0.0000
    Dipole Moment (Debye)
         X      -1.4293      Y      -1.8681      Z       0.4039
       Tot       2.3866
    Quadrupole Moments (Debye-Ang)
        XX     -40.0058     XY      -4.0950     YY     -43.7139
        XZ      -1.0179     YZ      -0.8075     ZZ     -42.2588

 Total job time:  236.09s(wall), 198.09s(cpu)
        *  Thank you very much for using Q-Chem.  Have a nice day.  *
