 Q-Chem 5.0, Q-Chem, Inc., Pleasanton, CA (2017)
 Q-Chem 5.0.2 for Intel X86 EM64T Linux

User input:
--------------------------------------------------------------
$molecule
0 2
C        1.5648095227    0.3048914747    0.0235933355
C        1.0240268137   -0.9381479498    0.2910954512
C       -0.3629757636   -1.2134585017    0.1197093303
C       -1.3169449344    0.3973856552   -0.0345343821
C       -0.4277473817    1.4959225523    0.1639445795
N        0.8775844119    1.4834852468    0.0109339264
H        2.6472489530    0.4224683991    0.0216519709
H        1.6632111897   -1.7094665539    0.7161725188
H       -0.8522989283   -1.9928670905    0.7043253216
H       -2.2986960649    0.4270079013    0.4408609915
H       -0.8578519497    2.4280950330    0.5360782575
C       -1.0432680616   -0.6290720730   -1.0210526787
H       -0.6242527164   -0.4845809500   -2.0131344715
$end

$rem
method                b3lyp
basis                 6-31+g(d,p)
unrestricted          true
symmetry              off
sym_ignore            true
incdft                false
incfock               0
scf_convergence       8
thresh                14
jobtype               ts
scf_guess             read
scf_algorithm         diis
max_scf_cycles        100
geom_opt_max_cycles   500
geom_opt_dmax         100
geom_opt_tol_gradient 10
geom_opt_hessian      read
$end

--------------------------------------------------------------

    2    -286.8753092164      7.93E-10 Convergence criterion met
 Total energy in the final basis set = -286.87530922
   12    -286.8753051781      6.87E-09 Convergence criterion met
 Total energy in the final basis set = -286.87530518

             Standard Nuclear Orientation (Angstroms)
    I     Atom           X                Y                Z
 ----------------------------------------------------------------
    1      C       1.5698287221     0.3059185705     0.0276669261
    2      C       1.0245862081    -0.9359079281     0.2906999428
    3      C      -0.3677533043    -1.2065008643     0.1217995117
    4      C      -1.3125382343     0.3907581754    -0.0317549133
    5      C      -0.4262751271     1.4973868521     0.1648492049
    6      N       0.8792844311     1.4866429071     0.0156791338
    7      H       2.6509207844     0.4234625315     0.0281015801
    8      H       1.6618474589    -1.7121581752     0.7085142621
    9      H      -0.8570202939    -1.9854748250     0.7059561479
   10      H      -2.2931518705     0.4191709408     0.4450236353
   11      H      -0.8607927617     2.4291068620     0.5303548196
   12      C      -1.0432542936    -0.6297242792    -1.0257349426
   13      H      -0.6328366286    -0.4910176243    -2.0215111573
 ----------------------------------------------------------------

    9    -286.8753051826      5.55E-09 Convergence criterion met
 Total energy in the final basis set = -286.87530518
 Final energy is   -286.875305182649
 **  OPTIMIZATION CONVERGED  **

                    Orbital Energies (a.u.)
 --------------------------------------------------------------

 Alpha MOs
 -- Occupied --
-14.337 -10.240 -10.236 -10.234 -10.232 -10.224 -10.205  -0.943
 -0.864  -0.782  -0.680  -0.660  -0.584  -0.527  -0.508  -0.499
 -0.455  -0.440  -0.399  -0.389  -0.377  -0.286  -0.265  -0.249
 -0.229

 Beta MOs
 -- Occupied --
-14.337 -10.241 -10.235 -10.234 -10.223 -10.218 -10.205  -0.941
 -0.853  -0.779  -0.670  -0.658  -0.573  -0.521  -0.502  -0.494
 -0.452  -0.434  -0.396  -0.382  -0.375  -0.278  -0.264  -0.237

          Ground-State Mulliken Net Atomic Charges

     Atom                 Charge (a.u.)    Spin (a.u.)
  --------------------------------------------------------
      1 C                    -0.318352       0.019928
      2 C                     0.092223       0.013046
      3 C                    -0.194520      -0.061377
      4 C                    -0.029043      -0.062365
      5 C                    -0.150301       0.039813
      6 N                    -0.166273       0.019250
      7 H                     0.125022      -0.001698
      8 H                     0.138532       0.005288
      9 H                     0.153523       0.025834
     10 H                     0.153255       0.037077
     11 H                     0.132151       0.003357
     12 C                    -0.093019       0.986063
     13 H                     0.156801      -0.024215
  --------------------------------------------------------
  Sum of atomic charges =     0.000000

                    Cartesian Multipole Moments
 -----------------------------------------------------------------
    Charge (ESU x 10^10)
                 0.0000
    Dipole Moment (Debye)
         X      -1.4426      Y      -1.8661      Z       0.3906
       Tot       2.3908
    Quadrupole Moments (Debye-Ang)
        XX     -40.0068     XY      -4.1225     YY     -43.7197
        XZ      -1.0298     YZ      -0.8133     ZZ     -42.2322

 Total job time:  67.40s(wall), 172.07s(cpu)
        *  Thank you very much for using Q-Chem.  Have a nice day.  *
