 Q-Chem 5.0, Q-Chem, Inc., Pleasanton, CA (2017)
 Q-Chem 5.0.2 for Intel X86 EM64T Linux

User input:
--------------------------------------------------------------
$molecule
0 2
C        1.5648095227    0.3048914747    0.0235933355
C        1.0240268137   -0.9381479498    0.2910954512
C       -0.3629757636   -1.2134585017    0.1197093303
C       -1.3169449344    0.3973856552   -0.0345343821
C       -0.4277473817    1.4959225523    0.1639445795
N        0.8775844119    1.4834852468    0.0109339264
H        2.6472489530    0.4224683991    0.0216519709
H        1.6632111897   -1.7094665539    0.7161725188
H       -0.8522989283   -1.9928670905    0.7043253216
H       -2.2986960649    0.4270079013    0.4408609915
H       -0.8578519497    2.4280950330    0.5360782575
C       -1.0432680616   -0.6290720730   -1.0210526787
H       -0.6242527164   -0.4845809500   -2.0131344715
$end

$rem
method                b3lyp
basis                 6-31g(d)
unrestricted          true
symmetry              off
sym_ignore            true
incdft                false
incfock               0
scf_convergence       8
thresh                14
jobtype               sp
scf_guess             read
scf_algorithm         diis
max_scf_cycles        100
$end

--------------------------------------------------------------

             Standard Nuclear Orientation (Angstroms)
    I     Atom           X                Y                Z
 ----------------------------------------------------------------
    1      C       1.5648095227     0.3048914747     0.0235933355
    2      C       1.0240268137    -0.9381479498     0.2910954512
    3      C      -0.3629757636    -1.2134585017     0.1197093303
    4      C      -1.3169449344     0.3973856552    -0.0345343821
    5      C      -0.4277473817     1.4959225523     0.1639445795
    6      N       0.8775844119     1.4834852468     0.0109339264
    7      H       2.6472489530     0.4224683991     0.0216519709
    8      H       1.6632111897    -1.7094665539     0.7161725188
    9      H      -0.8522989283    -1.9928670905     0.7043253216
   10      H      -2.2986960649     0.4270079013     0.4408609915
   11      H      -0.8578519497     2.4280950330     0.5360782575
   12      C      -1.0432680616    -0.6290720730    -1.0210526787
   13      H      -0.6242527164    -0.4845809500    -2.0131344715
 ----------------------------------------------------------------

    2    -286.8533578099      8.04E-09 Convergence criterion met
 Total energy in the final basis set = -286.85335781

                    Orbital Energies (a.u.)
 --------------------------------------------------------------

 Alpha MOs
 -- Occupied --
-14.322 -10.229 -10.224 -10.223 -10.220 -10.213 -10.194  -0.931
 -0.851  -0.771  -0.669  -0.650  -0.574  -0.518  -0.499  -0.489
 -0.447  -0.430  -0.390  -0.380  -0.366  -0.274  -0.253  -0.238
 -0.217

 Beta MOs
 -- Occupied --
-14.322 -10.230 -10.223 -10.223 -10.212 -10.206 -10.193  -0.928
 -0.840  -0.769  -0.659  -0.648  -0.563  -0.511  -0.492  -0.483
 -0.443  -0.424  -0.386  -0.372  -0.363  -0.265  -0.252  -0.224

          Ground-State Mulliken Net Atomic Charges

     Atom                 Charge (a.u.)    Spin (a.u.)
  --------------------------------------------------------
      1 C                    -0.014220       0.020621
      2 C                    -0.093121       0.012124
      3 C                    -0.179105      -0.047084
      4 C                    -0.196427      -0.048751
      5 C                     0.070339       0.048501
      6 N                    -0.391233       0.017929
      7 H                     0.135695      -0.001638
      8 H                     0.143116       0.005998
      9 H                     0.164739       0.023430
     10 H                     0.162899       0.034535
     11 H                     0.144032       0.003717
     12 C                    -0.112684       0.956398
     13 H                     0.165971      -0.025781
  --------------------------------------------------------
  Sum of atomic charges =     0.000000

                    Cartesian Multipole Moments
 -----------------------------------------------------------------
    Charge (ESU x 10^10)
                 0.0000
    Dipole Moment (Debye)
         X      -1.3456      Y      -1.7487      Z       0.3575
       Tot       2.2353
    Quadrupole Moments (Debye-Ang)
        XX     -38.6726     XY      -3.6762     YY     -42.0625
        XZ      -0.9417     YZ      -0.7389     ZZ     -40.8846

 Total job time:  4.43s(wall), 6.90s(cpu)
        *  Thank you very much for using Q-Chem.  Have a nice day.  *
