 Q-Chem 5.0, Q-Chem, Inc., Pleasanton, CA (2017)
 Q-Chem 5.0.2 for Intel X86 EM64T Linux

User input:
--------------------------------------------------------------
$molecule
0 2
C        1.6111704990    0.3358593785    0.1605825598
C        1.0628683565   -0.9080813184    0.2815581989
C       -0.3290686396   -1.2123456998    0.0898206076
C       -1.2885989277    0.4193146227   -0.0296383863
C       -0.3825184481    1.5144614431    0.1621444326
N        0.9272854959    1.5299721336    0.1302061722
H        2.6873589480    0.4566735318    0.2703350687
H        1.7101194559   -1.7349458821    0.5683416955
H       -0.7262795607   -2.0885155966    0.6118896774
H       -2.2903398816    0.5565190679    0.3794029279
H       -0.8521649083    2.4733461088    0.4062682571
C       -1.0830336906   -0.6417582912   -0.9961770118
H       -1.0539536082   -0.7088363548   -2.0750900486
$end

$rem
method                b3lyp
basis                 6-31g(d)
unrestricted          true
symmetry              off
sym_ignore            true
incdft                false
incfock               0
scf_convergence       6
thresh                14
jobtype               sp
scf_guess             read
scf_algorithm         diis
max_scf_cycles        100
stability_analysis    true
max_cis_cycles        100
cis_n_roots           4
$end

--------------------------------------------------------------

             Standard Nuclear Orientation (Angstroms)
    I     Atom           X                Y                Z
 ----------------------------------------------------------------
    1      C       1.6111704990     0.3358593785     0.1605825598
    2      C       1.0628683565    -0.9080813184     0.2815581989
    3      C      -0.3290686396    -1.2123456998     0.0898206076
    4      C      -1.2885989277     0.4193146227    -0.0296383863
    5      C      -0.3825184481     1.5144614431     0.1621444326
    6      N       0.9272854959     1.5299721336     0.1302061722
    7      H       2.6873589480     0.4566735318     0.2703350687
    8      H       1.7101194559    -1.7349458821     0.5683416955
    9      H      -0.7262795607    -2.0885155966     0.6118896774
   10      H      -2.2903398816     0.5565190679     0.3794029279
   11      H      -0.8521649083     2.4733461088     0.4062682571
   12      C      -1.0830336906    -0.6417582912    -0.9961770118
   13      H      -1.0539536082    -0.7088363548    -2.0750900486
 ----------------------------------------------------------------

    2    -286.8490382874      2.15E-09 Convergence criterion met
 Total energy in the final basis set = -286.84903829

         TDDFT/TDA Excitation Energies
 ---------------------------------------------------

 Excited state   1: excitation energy (eV) =    3.1675
 Total energy for state  1:                  -286.73263452 au
    <S**2>     :  0.8940
    Trans. Mom.: -0.0013 X   0.1689 Y   0.0364 Z
    Strength   :     0.0023158404
    D( 23) --> S(  1) amplitude =  0.1800 beta
    D( 24) --> S(  1) amplitude =  0.9620 beta

 Excited state   2: excitation energy (eV) =    3.6266
 Total energy for state  2:                  -286.71576476 au
    <S**2>     :  1.9383
    Trans. Mom.:  0.0315 X  -0.0151 Y   0.0185 Z
    Strength   :     0.0001390292
    D( 24) --> V(  1) amplitude =  0.3832 alpha
    S(  1) --> V(  1) amplitude =  0.4536 alpha
    D( 22) --> S(  1) amplitude =  0.3669 beta
    D( 23) --> S(  1) amplitude = -0.4313 beta
    D( 24) --> V(  1) amplitude = -0.4632 beta
    D( 24) --> V(  2) amplitude =  0.1591 beta

 Excited state   3: excitation energy (eV) =    3.7135
 Total energy for state  3:                  -286.71256849 au
    <S**2>     :  1.3380
    Trans. Mom.:  0.0275 X   0.0886 Y   0.0465 Z
    Strength   :     0.0009791864
    D( 24) --> V(  1) amplitude = -0.3281 alpha
    S(  1) --> V(  1) amplitude = -0.1902 alpha
    D( 22) --> S(  1) amplitude =  0.5699 beta
    D( 23) --> S(  1) amplitude = -0.5593 beta
    D( 24) --> S(  1) amplitude =  0.1975 beta
    D( 24) --> V(  1) amplitude =  0.3437 beta

 Excited state   4: excitation energy (eV) =    3.9527
 Total energy for state  4:                  -286.70378045 au
    <S**2>     :  1.4487
    Trans. Mom.:  0.0566 X   0.0280 Y   0.0329 Z
    Strength   :     0.0004915482
    D( 22) --> V(  1) amplitude = -0.2080 alpha
    D( 24) --> V(  1) amplitude = -0.2738 alpha
    S(  1) --> V(  1) amplitude =  0.6500 alpha
    D( 22) --> S(  1) amplitude = -0.4467 beta
    D( 23) --> S(  1) amplitude = -0.2743 beta
    D( 23) --> V(  1) amplitude =  0.2218 beta
    D( 24) --> V(  1) amplitude =  0.1643 beta
    D( 24) --> V(  2) amplitude = -0.1648 beta

 ---------------------------------------------------

                    Orbital Energies (a.u.)
 --------------------------------------------------------------

 Alpha MOs
 -- Occupied --
-14.321 -10.231 -10.225 -10.223 -10.217 -10.210 -10.196  -0.927
 -0.849  -0.771  -0.671  -0.653  -0.568  -0.522  -0.496  -0.494
 -0.443  -0.433  -0.384  -0.376  -0.370  -0.263  -0.255  -0.235
 -0.215

 Beta MOs
 -- Occupied --
-14.321 -10.232 -10.224 -10.224 -10.210 -10.203 -10.195  -0.925
 -0.836  -0.769  -0.661  -0.650  -0.555  -0.515  -0.491  -0.486
 -0.438  -0.428  -0.379  -0.371  -0.369  -0.262  -0.250  -0.231

          Ground-State Mulliken Net Atomic Charges

     Atom                 Charge (a.u.)    Spin (a.u.)
  --------------------------------------------------------
      1 C                    -0.004328      -0.002780
      2 C                    -0.087828       0.030593
      3 C                    -0.177179      -0.051072
      4 C                    -0.194399      -0.060948
      5 C                     0.071971       0.030300
      6 N                    -0.394935       0.000776
      7 H                     0.135632       0.000131
      8 H                     0.141284       0.007605
      9 H                     0.160598       0.031330
     10 H                     0.158085       0.037750
     11 H                     0.141160       0.007871
     12 C                    -0.112327       1.001578
     13 H                     0.162265      -0.033134
  --------------------------------------------------------
  Sum of atomic charges =    -0.000000

                    Cartesian Multipole Moments
 -----------------------------------------------------------------
    Charge (ESU x 10^10)
                 0.0000
    Dipole Moment (Debye)
         X      -1.4490      Y      -1.9615      Z      -0.1187
       Tot       2.4415
    Quadrupole Moments (Debye-Ang)
        XX     -38.5923     XY      -3.9300     YY     -41.6857
        XZ       0.0568     YZ      -0.4640     ZZ     -40.8749

 Total job time:  122.78s(wall), 92.77s(cpu)
        *  Thank you very much for using Q-Chem.  Have a nice day.  *
