 Q-Chem 5.0, Q-Chem, Inc., Pleasanton, CA (2017)
 Q-Chem 5.0.2 for Intel X86 EM64T Linux

User input:
--------------------------------------------------------------
$molecule
0 2
C        1.6111704990    0.3358593785    0.1605825598
C        1.0628683565   -0.9080813184    0.2815581989
C       -0.3290686396   -1.2123456998    0.0898206076
C       -1.2885989277    0.4193146227   -0.0296383863
C       -0.3825184481    1.5144614431    0.1621444326
N        0.9272854959    1.5299721336    0.1302061722
H        2.6873589480    0.4566735318    0.2703350687
H        1.7101194559   -1.7349458821    0.5683416955
H       -0.7262795607   -2.0885155966    0.6118896774
H       -2.2903398816    0.5565190679    0.3794029279
H       -0.8521649083    2.4733461088    0.4062682571
C       -1.0830336906   -0.6417582912   -0.9961770118
H       -1.0539536082   -0.7088363548   -2.0750900486
$end

$rem
method                b3lyp
basis                 6-31g(d)
unrestricted          true
symmetry              off
sym_ignore            true
incdft                false
incfock               0
scf_convergence       8
thresh                14
jobtype               freq
scf_guess             read
scf_algorithm         diis
max_scf_cycles        100
$end

--------------------------------------------------------------

             Standard Nuclear Orientation (Angstroms)
    I     Atom           X                Y                Z
 ----------------------------------------------------------------
    1      C       1.6111704990     0.3358593785     0.1605825598
    2      C       1.0628683565    -0.9080813184     0.2815581989
    3      C      -0.3290686396    -1.2123456998     0.0898206076
    4      C      -1.2885989277     0.4193146227    -0.0296383863
    5      C      -0.3825184481     1.5144614431     0.1621444326
    6      N       0.9272854959     1.5299721336     0.1302061722
    7      H       2.6873589480     0.4566735318     0.2703350687
    8      H       1.7101194559    -1.7349458821     0.5683416955
    9      H      -0.7262795607    -2.0885155966     0.6118896774
   10      H      -2.2903398816     0.5565190679     0.3794029279
   11      H      -0.8521649083     2.4733461088     0.4062682571
   12      C      -1.0830336906    -0.6417582912    -0.9961770118
   13      H      -1.0539536082    -0.7088363548    -2.0750900486
 ----------------------------------------------------------------

    2    -286.8490382875      3.13E-09 Convergence criterion met
 Total energy in the final basis set = -286.84903829

                    Orbital Energies (a.u.)
 --------------------------------------------------------------

 Alpha MOs
 -- Occupied --
-14.321 -10.231 -10.225 -10.223 -10.217 -10.210 -10.196  -0.927
 -0.849  -0.771  -0.671  -0.653  -0.568  -0.522  -0.496  -0.494
 -0.443  -0.433  -0.384  -0.376  -0.370  -0.263  -0.255  -0.235
 -0.215

 Beta MOs
 -- Occupied --
-14.321 -10.232 -10.224 -10.224 -10.210 -10.203 -10.195  -0.925
 -0.836  -0.769  -0.661  -0.650  -0.555  -0.515  -0.491  -0.486
 -0.438  -0.428  -0.379  -0.371  -0.369  -0.262  -0.250  -0.231

          Ground-State Mulliken Net Atomic Charges

     Atom                 Charge (a.u.)    Spin (a.u.)
  --------------------------------------------------------
      1 C                    -0.004328      -0.002788
      2 C                    -0.087828       0.030602
      3 C                    -0.177179      -0.051079
      4 C                    -0.194399      -0.060941
      5 C                     0.071971       0.030292
      6 N                    -0.394935       0.000782
      7 H                     0.135632       0.000132
      8 H                     0.141284       0.007604
      9 H                     0.160598       0.031330
     10 H                     0.158085       0.037749
     11 H                     0.141161       0.007872
     12 C                    -0.112327       1.001578
     13 H                     0.162265      -0.033134
  --------------------------------------------------------
  Sum of atomic charges =    -0.000000

                    Cartesian Multipole Moments
 -----------------------------------------------------------------
    Charge (ESU x 10^10)
                 0.0000
    Dipole Moment (Debye)
         X      -1.4490      Y      -1.9615      Z      -0.1187
       Tot       2.4415
    Quadrupole Moments (Debye-Ang)
        XX     -38.5923     XY      -3.9300     YY     -41.6857
        XZ       0.0568     YZ      -0.4640     ZZ     -40.8749

 Frequency:      -480.02                 -24.70                 265.83
 Force Cnst:      0.4411                 0.0004                 0.1218
 Red. Mass:       3.2489                 1.2324                 2.9257
 IR Intens:        3.710                  7.928                  2.309
 Frequency:       346.11                 455.83                 473.61
 Force Cnst:      0.2443                 0.7931                 0.4861
 Red. Mass:       3.4616                 6.4784                 3.6778
 IR Intens:        5.084                  1.699                  4.811
 Frequency:       659.10                 680.18                 778.19
 Force Cnst:      0.7599                 0.6001                 0.7082
 Red. Mass:       2.9689                 2.2015                 1.9848
 IR Intens:       16.832                  9.378                 14.960
 Frequency:       837.59                 868.42                 907.42
 Force Cnst:      0.5772                 0.9290                 0.9586
 Red. Mass:       1.3964                 2.0907                 1.9759
 IR Intens:        4.137                 22.377                  3.254
 Frequency:       924.25                 962.23                 974.67
 Force Cnst:      1.1721                 0.7864                 1.5643
 Red. Mass:       2.3288                 1.4415                 2.7948
 IR Intens:        3.102                  1.379                  3.095
 Frequency:      1006.32                1082.57                1087.78
 Force Cnst:      1.1190                 0.9229                 1.4034
 Red. Mass:       1.8755                 1.3366                 2.0130
 IR Intens:        2.842                  4.894                 12.777
 Frequency:      1196.53                1226.72                1267.10
 Force Cnst:      1.6953                 1.2236                 1.1853
 Red. Mass:       2.0097                 1.3801                 1.2530
 IR Intens:        0.345                  2.726                  2.214
 Frequency:      1352.10                1401.91                1425.15
 Force Cnst:      2.1979                 3.1215                 1.6464
 Red. Mass:       2.0406                 2.6958                 1.3758
 IR Intens:        5.336                 18.379                  5.735
 Frequency:      1480.83                1527.00                1637.61
 Force Cnst:      2.7015                 6.0178                 8.1427
 Red. Mass:       2.0909                 4.3804                 5.1534
 IR Intens:        4.023                  6.531                 20.332
 Frequency:      3098.11                3098.41                3132.72
 Force Cnst:      6.1386                 6.1385                 6.2881
 Red. Mass:       1.0855                 1.0853                 1.0875
 IR Intens:       18.074                 24.257                 24.540
 Frequency:      3165.23                3185.29                3248.31
 Force Cnst:      6.4048                 6.5461                 6.8036
 Red. Mass:       1.0850                 1.0951                 1.0944
 IR Intens:        6.583                 35.189                 14.747

 STANDARD THERMODYNAMIC QUANTITIES AT   298.15 K  AND     1.00 ATM

   This Molecule has  2 Imaginary Frequencies
   Zero point vibrational energy:       62.548 kcal/mol

   Atom    1 Element C  Has Mass   12.00000
   Atom    2 Element C  Has Mass   12.00000
   Atom    3 Element C  Has Mass   12.00000
   Atom    4 Element C  Has Mass   12.00000
   Atom    5 Element C  Has Mass   12.00000
   Atom    6 Element N  Has Mass   14.00307
   Atom    7 Element H  Has Mass    1.00783
   Atom    8 Element H  Has Mass    1.00783
   Atom    9 Element H  Has Mass    1.00783
   Atom   10 Element H  Has Mass    1.00783
   Atom   11 Element H  Has Mass    1.00783
   Atom   12 Element C  Has Mass   12.00000
   Atom   13 Element H  Has Mass    1.00783
   Molecular Mass:    92.050050 amu
   Principal axes and moments of inertia in amu*Bohr^2:
                             1           2           3
    Eigenvalues --      403.46206   496.40073   806.30247
          X               0.76968    -0.59916    -0.22046
          Y               0.59752     0.79767    -0.08179
          Z               0.22486    -0.06878     0.97196
   Rotational Symmetry Number is   1
   The Molecule is an Asymmetric Top
   Translational Enthalpy:        0.889 kcal/mol
   Rotational Enthalpy:           0.889 kcal/mol
   Vibrational Enthalpy:         63.899 kcal/mol
   gas constant (RT):             0.592 kcal/mol
   Translational Entropy:        39.471  cal/mol.K
   Rotational Entropy:           26.582  cal/mol.K
   Vibrational Entropy:           6.459  cal/mol.K

   Total Enthalpy:               66.269 kcal/mol
   Total Entropy:                72.512  cal/mol.K

 Total job time:  269.58s(wall), 250.76s(cpu)
        *  Thank you very much for using Q-Chem.  Have a nice day.  *
