 Q-Chem 5.0, Q-Chem, Inc., Pleasanton, CA (2017)
 Q-Chem 5.0.2 for Intel X86 EM64T Linux

User input:
--------------------------------------------------------------
$molecule
0 2
C        1.5698287221    0.3059185705    0.0276669261
C        1.0245862081   -0.9359079281    0.2906999428
C       -0.3677533043   -1.2065008643    0.1217995117
C       -1.3125382343    0.3907581754   -0.0317549133
C       -0.4262751271    1.4973868521    0.1648492049
N        0.8792844311    1.4866429071    0.0156791338
H        2.6509207844    0.4234625315    0.0281015801
H        1.6618474589   -1.7121581752    0.7085142621
H       -0.8570202939   -1.9854748250    0.7059561479
H       -2.2931518705    0.4191709408    0.4450236353
H       -0.8607927617    2.4291068620    0.5303548196
C       -1.0432542936   -0.6297242792   -1.0257349426
H       -0.6328366286   -0.4910176243   -2.0215111573
$end

$rem
method                b3lyp
basis                 6-31+g(d,p)
unrestricted          true
symmetry              off
sym_ignore            true
incdft                false
incfock               0
scf_convergence       8
thresh                14
jobtype               freq
scf_guess             read
scf_algorithm         diis
max_scf_cycles        100
$end

--------------------------------------------------------------

             Standard Nuclear Orientation (Angstroms)
    I     Atom           X                Y                Z
 ----------------------------------------------------------------
    1      C       1.5698287221     0.3059185705     0.0276669261
    2      C       1.0245862081    -0.9359079281     0.2906999428
    3      C      -0.3677533043    -1.2065008643     0.1217995117
    4      C      -1.3125382343     0.3907581754    -0.0317549133
    5      C      -0.4262751271     1.4973868521     0.1648492049
    6      N       0.8792844311     1.4866429071     0.0156791338
    7      H       2.6509207844     0.4234625315     0.0281015801
    8      H       1.6618474589    -1.7121581752     0.7085142621
    9      H      -0.8570202939    -1.9854748250     0.7059561479
   10      H      -2.2931518705     0.4191709408     0.4450236353
   11      H      -0.8607927617     2.4291068620     0.5303548196
   12      C      -1.0432542936    -0.6297242792    -1.0257349426
   13      H      -0.6328366286    -0.4910176243    -2.0215111573
 ----------------------------------------------------------------

    2    -286.8753051826      9.99E-11 Convergence criterion met
 Total energy in the final basis set = -286.87530518

                    Orbital Energies (a.u.)
 --------------------------------------------------------------

 Alpha MOs
 -- Occupied --
-14.337 -10.240 -10.236 -10.234 -10.232 -10.224 -10.205  -0.943
 -0.864  -0.782  -0.680  -0.660  -0.584  -0.527  -0.508  -0.499
 -0.455  -0.440  -0.399  -0.389  -0.377  -0.286  -0.265  -0.249
 -0.229

 Beta MOs
 -- Occupied --
-14.337 -10.241 -10.235 -10.234 -10.223 -10.218 -10.205  -0.941
 -0.853  -0.779  -0.670  -0.658  -0.573  -0.521  -0.502  -0.494
 -0.452  -0.434  -0.396  -0.382  -0.375  -0.278  -0.264  -0.237

          Ground-State Mulliken Net Atomic Charges

     Atom                 Charge (a.u.)    Spin (a.u.)
  --------------------------------------------------------
      1 C                    -0.318352       0.019930
      2 C                     0.092223       0.013043
      3 C                    -0.194520      -0.061376
      4 C                    -0.029043      -0.062367
      5 C                    -0.150301       0.039815
      6 N                    -0.166273       0.019248
      7 H                     0.125022      -0.001698
      8 H                     0.138532       0.005288
      9 H                     0.153523       0.025833
     10 H                     0.153255       0.037077
     11 H                     0.132151       0.003357
     12 C                    -0.093019       0.986063
     13 H                     0.156801      -0.024215
  --------------------------------------------------------
  Sum of atomic charges =     0.000000

                    Cartesian Multipole Moments
 -----------------------------------------------------------------
    Charge (ESU x 10^10)
                 0.0000
    Dipole Moment (Debye)
         X      -1.4426      Y      -1.8661      Z       0.3906
       Tot       2.3908
    Quadrupole Moments (Debye-Ang)
        XX     -40.0068     XY      -4.1225     YY     -43.7197
        XZ      -1.0298     YZ      -0.8133     ZZ     -42.2322

 Frequency:      -381.43                 266.95                 283.49
 Force Cnst:      0.3824                 0.1044                 0.1386
 Red. Mass:       4.4610                 2.4872                 2.9262
 IR Intens:        2.916                  8.497                  1.671
 Frequency:       432.82                 456.40                 635.12
 Force Cnst:      0.2922                 0.6715                 0.3620
 Red. Mass:       2.6474                 5.4718                 1.5232
 IR Intens:        0.231                  2.906                 54.130
 Frequency:       658.92                 676.11                 790.57
 Force Cnst:      0.8721                 0.5097                 0.6034
 Red. Mass:       3.4091                 1.8923                 1.6385
 IR Intens:        4.580                 25.186                  7.399
 Frequency:       865.48                 877.42                 902.42
 Force Cnst:      0.6852                 1.1306                 0.7462
 Red. Mass:       1.5526                 2.4925                 1.5552
 IR Intens:       12.433                 27.438                  4.231
 Frequency:       925.57                 952.57                 983.54
 Force Cnst:      1.2815                 0.7466                 1.6302
 Red. Mass:       2.5390                 1.3966                 2.8602
 IR Intens:        6.874                  1.442                  2.127
 Frequency:      1012.51                1082.45                1096.70
 Force Cnst:      1.6981                 1.1951                 0.9983
 Red. Mass:       2.8113                 1.7311                 1.4088
 IR Intens:        2.876                 16.492                  1.578
 Frequency:      1151.58                1214.83                1240.73
 Force Cnst:      1.1977                 1.2267                 1.1901
 Red. Mass:       1.5329                 1.4108                 1.3121
 IR Intens:        1.887                  4.414                  5.364
 Frequency:      1350.13                1383.44                1405.58
 Force Cnst:      1.9125                 3.8093                 1.7401
 Red. Mass:       1.7808                 3.3781                 1.4949
 IR Intens:        2.013                 22.342                  7.811
 Frequency:      1467.60                1501.76                1588.33
 Force Cnst:      2.7050                 5.9685                 7.3749
 Red. Mass:       2.1316                 4.4917                 4.9616
 IR Intens:        2.260                  8.796                 31.198
 Frequency:      3126.31                3141.58                3145.00
 Force Cnst:      6.2431                 6.3406                 6.3368
 Red. Mass:       1.0841                 1.0904                 1.0874
 IR Intens:        3.038                 23.698                  9.072
 Frequency:      3168.76                3184.92                3190.31
 Force Cnst:      6.4274                 6.5427                 6.5469
 Red. Mass:       1.0864                 1.0947                 1.0917
 IR Intens:        7.731                 22.262                  9.812

 STANDARD THERMODYNAMIC QUANTITIES AT   298.15 K  AND     1.00 ATM

   This Molecule has  1 Imaginary Frequencies
   Zero point vibrational energy:       63.130 kcal/mol

   Atom    1 Element C  Has Mass   12.00000
   Atom    2 Element C  Has Mass   12.00000
   Atom    3 Element C  Has Mass   12.00000
   Atom    4 Element C  Has Mass   12.00000
   Atom    5 Element C  Has Mass   12.00000
   Atom    6 Element N  Has Mass   14.00307
   Atom    7 Element H  Has Mass    1.00783
   Atom    8 Element H  Has Mass    1.00783
   Atom    9 Element H  Has Mass    1.00783
   Atom   10 Element H  Has Mass    1.00783
   Atom   11 Element H  Has Mass    1.00783
   Atom   12 Element C  Has Mass   12.00000
   Atom   13 Element H  Has Mass    1.00783
   Molecular Mass:    92.050050 amu
   Principal axes and moments of inertia in amu*Bohr^2:
                             1           2           3
    Eigenvalues --      408.05378   477.92280   771.05750
          X               0.77340    -0.60845    -0.17787
          Y               0.60955     0.79085    -0.05491
          Z               0.17408    -0.06595     0.98252
   Rotational Symmetry Number is   1
   The Molecule is an Asymmetric Top
   Translational Enthalpy:        0.889 kcal/mol
   Rotational Enthalpy:           0.889 kcal/mol
   Vibrational Enthalpy:         64.635 kcal/mol
   gas constant (RT):             0.592 kcal/mol
   Translational Entropy:        39.471  cal/mol.K
   Rotational Entropy:           26.511  cal/mol.K
   Vibrational Entropy:           7.283  cal/mol.K

   Total Enthalpy:               67.005 kcal/mol
   Total Entropy:                73.265  cal/mol.K

 Total job time:  577.85s(wall), 545.24s(cpu)
        *  Thank you very much for using Q-Chem.  Have a nice day.  *
