 Q-Chem 5.0, Q-Chem, Inc., Pleasanton, CA (2017)
 Q-Chem 5.0.2 for Intel X86 EM64T Linux

User input:
--------------------------------------------------------------
$molecule
0 2
C        1.6111704990    0.3358593785    0.1605825598
C        1.0628683565   -0.9080813184    0.2815581989
C       -0.3290686396   -1.2123456998    0.0898206076
C       -1.2885989277    0.4193146227   -0.0296383863
C       -0.3825184481    1.5144614431    0.1621444326
N        0.9272854959    1.5299721336    0.1302061722
H        2.6873589480    0.4566735318    0.2703350687
H        1.7101194559   -1.7349458821    0.5683416955
H       -0.7262795607   -2.0885155966    0.6118896774
H       -2.2903398816    0.5565190679    0.3794029279
H       -0.8521649083    2.4733461088    0.4062682571
C       -1.0830336906   -0.6417582912   -0.9961770118
H       -1.0539536082   -0.7088363548   -2.0750900486
$end

$rem
method                b3lyp
basis                 6-31g(d)
unrestricted          true
symmetry              off
sym_ignore            true
incdft                false
incfock               0
scf_convergence       8
thresh                14
jobtype               ts
scf_guess             read
scf_algorithm         diis
max_scf_cycles        100
geom_opt_max_cycles   500
geom_opt_dmax         100
geom_opt_tol_gradient 10
geom_opt_hessian      read
$end

--------------------------------------------------------------

    2    -286.8490382875      1.24E-09 Convergence criterion met
 Total energy in the final basis set = -286.84903829
   12    -286.8497192923      7.22E-09 Convergence criterion met
 Total energy in the final basis set = -286.84971929
   12    -286.8502809092      6.92E-09 Convergence criterion met
 Total energy in the final basis set = -286.85028091
   12    -286.8507542160      6.70E-09 Convergence criterion met
 Total energy in the final basis set = -286.85075422
   12    -286.8511657572      6.67E-09 Convergence criterion met
 Total energy in the final basis set = -286.85116576
   12    -286.8515368987      6.90E-09 Convergence criterion met
 Total energy in the final basis set = -286.85153690
   12    -286.8518751876      7.26E-09 Convergence criterion met
 Total energy in the final basis set = -286.85187519
   12    -286.8521835462      7.72E-09 Convergence criterion met
   13    -286.8531018200      4.75E-09 Convergence criterion met
 Total energy in the final basis set = -286.85310182
   13    -286.8532380791      5.35E-09 Convergence criterion met
 Total energy in the final basis set = -286.85323808
   13    -286.8533265395      6.10E-09 Convergence criterion met
 Total energy in the final basis set = -286.85332654
   13    -286.8533579934      7.07E-09 Convergence criterion met
 Total energy in the final basis set = -286.85335799
   10    -286.8533577898      3.90E-09 Convergence criterion met
 Total energy in the final basis set = -286.85335779
    8    -286.8533578040      9.08E-09 Convergence criterion met
 Total energy in the final basis set = -286.85335780

             Standard Nuclear Orientation (Angstroms)
    I     Atom           X                Y                Z
 ----------------------------------------------------------------
    1      C       1.5648095227     0.3048914747     0.0235933355
    2      C       1.0240268137    -0.9381479498     0.2910954512
    3      C      -0.3629757636    -1.2134585017     0.1197093303
    4      C      -1.3169449344     0.3973856552    -0.0345343821
    5      C      -0.4277473817     1.4959225523     0.1639445795
    6      N       0.8775844119     1.4834852468     0.0109339264
    7      H       2.6472489530     0.4224683991     0.0216519709
    8      H       1.6632111897    -1.7094665539     0.7161725188
    9      H      -0.8522989283    -1.9928670905     0.7043253216
   10      H      -2.2986960649     0.4270079013     0.4408609915
   11      H      -0.8578519497     2.4280950330     0.5360782575
   12      C      -1.0432680616    -0.6290720730    -1.0210526787
   13      H      -0.6242527164    -0.4845809500    -2.0131344715
 ----------------------------------------------------------------

    7    -286.8533578099      8.09E-09 Convergence criterion met
 Total energy in the final basis set = -286.85335781
 Final energy is   -286.853357809879
 **  OPTIMIZATION CONVERGED  **

                    Orbital Energies (a.u.)
 --------------------------------------------------------------

 Alpha MOs
 -- Occupied --
-14.322 -10.229 -10.224 -10.223 -10.220 -10.213 -10.194  -0.931
 -0.851  -0.771  -0.669  -0.650  -0.574  -0.518  -0.499  -0.489
 -0.447  -0.430  -0.390  -0.380  -0.366  -0.274  -0.253  -0.238
 -0.217

 Beta MOs
 -- Occupied --
-14.322 -10.230 -10.223 -10.223 -10.212 -10.206 -10.193  -0.928
 -0.840  -0.769  -0.659  -0.648  -0.563  -0.511  -0.492  -0.483
 -0.443  -0.424  -0.386  -0.372  -0.363  -0.265  -0.252  -0.224

          Ground-State Mulliken Net Atomic Charges

     Atom                 Charge (a.u.)    Spin (a.u.)
  --------------------------------------------------------
      1 C                    -0.014220       0.020620
      2 C                    -0.093120       0.012125
      3 C                    -0.179105      -0.047084
      4 C                    -0.196427      -0.048750
      5 C                     0.070338       0.048501
      6 N                    -0.391233       0.017930
      7 H                     0.135695      -0.001638
      8 H                     0.143116       0.005998
      9 H                     0.164739       0.023430
     10 H                     0.162899       0.034535
     11 H                     0.144032       0.003717
     12 C                    -0.112684       0.956398
     13 H                     0.165971      -0.025781
  --------------------------------------------------------
  Sum of atomic charges =    -0.000000

                    Cartesian Multipole Moments
 -----------------------------------------------------------------
    Charge (ESU x 10^10)
                 0.0000
    Dipole Moment (Debye)
         X      -1.3456      Y      -1.7487      Z       0.3575
       Tot       2.2353
    Quadrupole Moments (Debye-Ang)
        XX     -38.6726     XY      -3.6762     YY     -42.0625
        XZ      -0.9417     YZ      -0.7389     ZZ     -40.8846

 Total job time:  349.23s(wall), 672.58s(cpu)
        *  Thank you very much for using Q-Chem.  Have a nice day.  *
