 Q-Chem 5.0, Q-Chem, Inc., Pleasanton, CA (2017)
 Q-Chem 5.0.2 for Intel X86 EM64T Linux

User input:
--------------------------------------------------------------
$molecule
0 2
C        1.5648095227    0.3048914747    0.0235933355
C        1.0240268137   -0.9381479498    0.2910954512
C       -0.3629757636   -1.2134585017    0.1197093303
C       -1.3169449344    0.3973856552   -0.0345343821
C       -0.4277473817    1.4959225523    0.1639445795
N        0.8775844119    1.4834852468    0.0109339264
H        2.6472489530    0.4224683991    0.0216519709
H        1.6632111897   -1.7094665539    0.7161725188
H       -0.8522989283   -1.9928670905    0.7043253216
H       -2.2986960649    0.4270079013    0.4408609915
H       -0.8578519497    2.4280950330    0.5360782575
C       -1.0432680616   -0.6290720730   -1.0210526787
H       -0.6242527164   -0.4845809500   -2.0131344715
$end

$rem
method                b3lyp
basis                 6-31+g(d,p)
unrestricted          true
symmetry              off
sym_ignore            true
incdft                false
incfock               0
scf_convergence       8
thresh                14
jobtype               freq
scf_guess             read
scf_algorithm         diis
max_scf_cycles        100
$end

--------------------------------------------------------------

             Standard Nuclear Orientation (Angstroms)
    I     Atom           X                Y                Z
 ----------------------------------------------------------------
    1      C       1.5648095227     0.3048914747     0.0235933355
    2      C       1.0240268137    -0.9381479498     0.2910954512
    3      C      -0.3629757636    -1.2134585017     0.1197093303
    4      C      -1.3169449344     0.3973856552    -0.0345343821
    5      C      -0.4277473817     1.4959225523     0.1639445795
    6      N       0.8775844119     1.4834852468     0.0109339264
    7      H       2.6472489530     0.4224683991     0.0216519709
    8      H       1.6632111897    -1.7094665539     0.7161725188
    9      H      -0.8522989283    -1.9928670905     0.7043253216
   10      H      -2.2986960649     0.4270079013     0.4408609915
   11      H      -0.8578519497     2.4280950330     0.5360782575
   12      C      -1.0432680616    -0.6290720730    -1.0210526787
   13      H      -0.6242527164    -0.4845809500    -2.0131344715
 ----------------------------------------------------------------

    2    -286.8753092163      2.87E-09 Convergence criterion met
 Total energy in the final basis set = -286.87530922

                    Orbital Energies (a.u.)
 --------------------------------------------------------------

 Alpha MOs
 -- Occupied --
-14.337 -10.240 -10.235 -10.234 -10.232 -10.224 -10.205  -0.944
 -0.863  -0.783  -0.680  -0.661  -0.583  -0.527  -0.509  -0.499
 -0.456  -0.439  -0.400  -0.390  -0.377  -0.286  -0.266  -0.249
 -0.229

 Beta MOs
 -- Occupied --
-14.337 -10.241 -10.234 -10.234 -10.224 -10.218 -10.204  -0.941
 -0.852  -0.780  -0.670  -0.659  -0.572  -0.521  -0.503  -0.493
 -0.453  -0.434  -0.396  -0.383  -0.374  -0.277  -0.265  -0.237

          Ground-State Mulliken Net Atomic Charges

     Atom                 Charge (a.u.)    Spin (a.u.)
  --------------------------------------------------------
      1 C                    -0.320274       0.018419
      2 C                     0.094324       0.014098
      3 C                    -0.196779      -0.061293
      4 C                    -0.031758      -0.061176
      5 C                    -0.152548       0.039046
      6 N                    -0.165174       0.019918
      7 H                     0.124626      -0.001638
      8 H                     0.138951       0.005384
      9 H                     0.153356       0.025604
     10 H                     0.153115       0.036602
     11 H                     0.132096       0.003442
     12 C                    -0.087267       0.985681
     13 H                     0.157331      -0.024088
  --------------------------------------------------------
  Sum of atomic charges =    -0.000000

                    Cartesian Multipole Moments
 -----------------------------------------------------------------
    Charge (ESU x 10^10)
                 0.0000
    Dipole Moment (Debye)
         X      -1.4293      Y      -1.8681      Z       0.4039
       Tot       2.3866
    Quadrupole Moments (Debye-Ang)
        XX     -40.0058     XY      -4.0950     YY     -43.7139
        XZ      -1.0179     YZ      -0.8075     ZZ     -42.2588

 Frequency:      -390.17                 266.34                 285.33
 Force Cnst:      0.3956                 0.1046                 0.1427
 Red. Mass:       4.4109                 2.5015                 2.9758
 IR Intens:        3.182                  8.657                  1.722
 Frequency:       430.88                 452.73                 639.42
 Force Cnst:      0.2936                 0.6510                 0.3852
 Red. Mass:       2.6842                 5.3911                 1.5992
 IR Intens:        0.239                  2.906                 52.530
 Frequency:       659.95                 678.39                 793.37
 Force Cnst:      0.8095                 0.5019                 0.5969
 Red. Mass:       3.1546                 1.8509                 1.6097
 IR Intens:        6.042                 26.317                  6.982
 Frequency:       865.45                 878.16                 906.24
 Force Cnst:      0.7024                 1.1414                 0.7545
 Red. Mass:       1.5917                 2.5120                 1.5592
 IR Intens:       12.375                 27.580                  4.456
 Frequency:       929.80                 956.38                 987.70
 Force Cnst:      1.2408                 0.7460                 1.6057
 Red. Mass:       2.4361                 1.3843                 2.7936
 IR Intens:        6.354                  1.740                  2.163
 Frequency:      1015.22                1086.31                1101.93
 Force Cnst:      1.7809                 1.2008                 1.0098
 Red. Mass:       2.9327                 1.7271                 1.4115
 IR Intens:        2.847                 15.274                  1.580
 Frequency:      1156.95                1215.31                1244.91
 Force Cnst:      1.1866                 1.2336                 1.1995
 Red. Mass:       1.5046                 1.4176                 1.3136
 IR Intens:        2.065                  4.024                  5.512
 Frequency:      1355.13                1387.40                1411.25
 Force Cnst:      1.9097                 3.7636                 1.7849
 Red. Mass:       1.7650                 3.3186                 1.5211
 IR Intens:        1.572                 21.670                  8.261
 Frequency:      1472.06                1506.20                1591.43
 Force Cnst:      2.8192                 5.8560                 7.3932
 Red. Mass:       2.2081                 4.3811                 4.9546
 IR Intens:        1.960                  9.473                 31.677
 Frequency:      3120.42                3135.83                3140.13
 Force Cnst:      6.2190                 6.3181                 6.3163
 Red. Mass:       1.0840                 1.0905                 1.0872
 IR Intens:        5.270                 22.693                  8.277
 Frequency:      3158.28                3177.83                3182.88
 Force Cnst:      6.3884                 6.5105                 6.5142
 Red. Mass:       1.0870                 1.0942                 1.0914
 IR Intens:       13.201                 17.723                 10.403

 STANDARD THERMODYNAMIC QUANTITIES AT   298.15 K  AND     1.00 ATM

   This Molecule has  1 Imaginary Frequencies
   Zero point vibrational energy:       63.172 kcal/mol

   Atom    1 Element C  Has Mass   12.00000
   Atom    2 Element C  Has Mass   12.00000
   Atom    3 Element C  Has Mass   12.00000
   Atom    4 Element C  Has Mass   12.00000
   Atom    5 Element C  Has Mass   12.00000
   Atom    6 Element N  Has Mass   14.00307
   Atom    7 Element H  Has Mass    1.00783
   Atom    8 Element H  Has Mass    1.00783
   Atom    9 Element H  Has Mass    1.00783
   Atom   10 Element H  Has Mass    1.00783
   Atom   11 Element H  Has Mass    1.00783
   Atom   12 Element C  Has Mass   12.00000
   Atom   13 Element H  Has Mass    1.00783
   Molecular Mass:    92.050050 amu
   Principal axes and moments of inertia in amu*Bohr^2:
                             1           2           3
    Eigenvalues --      409.05457   476.09097   770.89024
          X               0.77166    -0.61098    -0.17677
          Y               0.61232     0.78880    -0.05343
          Z               0.17208    -0.06700     0.98280
   Rotational Symmetry Number is   1
   The Molecule is an Asymmetric Top
   Translational Enthalpy:        0.889 kcal/mol
   Rotational Enthalpy:           0.889 kcal/mol
   Vibrational Enthalpy:         64.673 kcal/mol
   gas constant (RT):             0.592 kcal/mol
   Translational Entropy:        39.471  cal/mol.K
   Rotational Entropy:           26.509  cal/mol.K
   Vibrational Entropy:           7.265  cal/mol.K

   Total Enthalpy:               67.043 kcal/mol
   Total Entropy:                73.245  cal/mol.K

 Total job time:  595.00s(wall), 545.14s(cpu)
        *  Thank you very much for using Q-Chem.  Have a nice day.  *
