 Q-Chem 5.0, Q-Chem, Inc., Pleasanton, CA (2017)
 Q-Chem 5.0.2 for Intel X86 EM64T Linux

User input:
--------------------------------------------------------------
$molecule
0 2
C        1.4090609578    0.1151334842   -0.7732763413
C        0.5190307498   -1.1372887726   -1.0123533554
C       -0.8987606479   -0.6331430171   -2.0919285003
C       -1.2955713485   -0.1056761840   -0.3864921887
C       -0.7211027643    0.7873538797   -1.5798674164
N        0.8959485932    1.2665150460   -1.4341122921
H        2.1062818758    0.0363339826    0.0465336203
H        0.7968202176   -2.1881787403   -0.9634699251
H       -1.6234774409   -1.0697542412   -2.9591726869
H       -2.3043495700    0.0055975375    0.0300093673
H       -1.3979260839    1.6494675281   -1.7078640879
C        0.0642760745   -0.3857264891    0.3246937073
H        0.6669639522   -0.4587339248    1.2775048002
$end

$rem
method                b3lyp
basis                 6-31g(d)
unrestricted          true
symmetry              off
sym_ignore            true
incdft                false
incfock               0
scf_convergence       8
thresh                14
jobtype               opt
scf_guess             read
scf_algorithm         diis
max_scf_cycles        100
geom_opt_tol_gradient 600
geom_opt_tol_displacement 2400
geom_opt_tol_energy   200
geom_opt_max_cycles   100
$end

--------------------------------------------------------------

    2    -286.6473065449      1.71E-09 Convergence criterion met
 Total energy in the final basis set = -286.64730654
   15    -286.6905882509      5.50E-09 Convergence criterion met
 Total energy in the final basis set = -286.69058825
   15    -286.7271383926      4.41E-09 Convergence criterion met
 Total energy in the final basis set = -286.72713839
   15    -286.7557894188      2.75E-09 Convergence criterion met
 Total energy in the final basis set = -286.75578942
   15    -286.7774195889      6.82E-09 Convergence criterion met
 Total energy in the final basis set = -286.77741959
   15    -286.7928827523      6.37E-09 Convergence criterion met
 Total energy in the final basis set = -286.79288275
   14    -286.8033831382      6.80E-09 Convergence criterion met
 Total energy in the final basis set = -286.80338314
   14    -286.8102267050      5.34E-09 Convergence criterion met
   14    -286.8239136359      5.32E-09 Convergence criterion met
 Total energy in the final basis set = -286.82391364
   13    -286.8245969484      8.65E-09 Convergence criterion met
 Total energy in the final basis set = -286.82459695
   12    -286.8248504002      7.32E-09 Convergence criterion met
 Total energy in the final basis set = -286.82485040
   12    -286.8249299358      5.23E-09 Convergence criterion met
 Total energy in the final basis set = -286.82492994
   11    -286.8249437214      9.98E-09 Convergence criterion met
 Total energy in the final basis set = -286.82494372
   11    -286.8249527070      5.83E-09 Convergence criterion met
 Total energy in the final basis set = -286.82495271

             Standard Nuclear Orientation (Angstroms)
    I     Atom           X                Y                Z
 ----------------------------------------------------------------
    1      C       1.1751359065     0.1400449291    -0.6220658343
    2      C       0.4697652169    -1.1632749682    -1.0465112298
    3      C      -0.8254432732    -0.6284661541    -1.7076395457
    4      C      -1.2152958047     0.0287956152    -0.4128592618
    5      C      -0.6561775380     0.8962429995    -1.5566019967
    6      N       0.6922441832     1.2604667098    -1.3348704581
    7      H       2.2116863898     0.1267820935    -0.3034078692
    8      H       0.9860282111    -2.0969647878    -1.2397980704
    9      H      -1.4330484937    -1.1002651443    -2.4718152438
   10      H      -2.1893129588     0.1744005226     0.0406889549
   11      H      -1.3021107580     1.5783409228    -2.0983781890
   12      C       0.0792760268    -0.5080697141     0.2485580285
   13      H       0.2244474575    -0.8261329352     1.2749054163
 ----------------------------------------------------------------

   10    -286.8249544165      7.05E-09 Convergence criterion met
 Total energy in the final basis set = -286.82495442
 Final energy is   -286.824954416536
 **  OPTIMIZATION CONVERGED  **

                    Orbital Energies (a.u.)
 --------------------------------------------------------------

 Alpha MOs
 -- Occupied --
-14.335 -10.215 -10.215 -10.207 -10.207 -10.207 -10.206  -0.986
 -0.837  -0.793  -0.649  -0.588  -0.574  -0.542  -0.533  -0.455
 -0.427  -0.415  -0.395  -0.384  -0.337  -0.275  -0.274  -0.248
 -0.212

 Beta MOs
 -- Occupied --
-14.319 -10.217 -10.217 -10.205 -10.205 -10.205 -10.205  -0.975
 -0.812  -0.789  -0.644  -0.585  -0.568  -0.537  -0.529  -0.453
 -0.423  -0.392  -0.390  -0.378  -0.322  -0.269  -0.257  -0.244

          Ground-State Mulliken Net Atomic Charges

     Atom                 Charge (a.u.)    Spin (a.u.)
  --------------------------------------------------------
      1 C                    -0.044532      -0.080646
      2 C                    -0.124985       0.089515
      3 C                    -0.124543       0.089353
      4 C                    -0.124837       0.088638
      5 C                    -0.045053      -0.080189
      6 N                    -0.285835       0.810924
      7 H                     0.149301       0.001049
      8 H                     0.143983      -0.002486
      9 H                     0.143985      -0.002538
     10 H                     0.143994      -0.002469
     11 H                     0.149336       0.001045
     12 C                    -0.124769       0.090311
     13 H                     0.143956      -0.002506
  --------------------------------------------------------
  Sum of atomic charges =     0.000000

                    Cartesian Multipole Moments
 -----------------------------------------------------------------
    Charge (ESU x 10^10)
                 0.0000
    Dipole Moment (Debye)
         X      -1.1241      Y      -1.9311      Z       0.6384
       Tot       2.3238
    Quadrupole Moments (Debye-Ang)
        XX     -37.6660     XY      -3.4028     YY     -42.8127
        XZ       3.2902     YZ       2.3924     ZZ     -40.3049

 Total job time:  665.06s(wall), 815.29s(cpu)
        *  Thank you very much for using Q-Chem.  Have a nice day.  *
