 Q-Chem 5.0, Q-Chem, Inc., Pleasanton, CA (2017)
 Q-Chem 5.0.2 for Intel X86 EM64T Linux

User input:
--------------------------------------------------------------
$molecule
0 2
C        1.5566744505    0.2987808599   -1.6394750267
C        0.6921374532   -0.9744271184   -1.3847554341
C       -0.5632284791   -0.6556796339   -1.9847502252
C       -1.0841050554    0.2954602394   -0.5906490450
C       -0.5520073874    0.7949794486   -2.1457904365
N        0.5946015571    1.2894372729   -1.9033485263
H        2.5676487621    0.1564997513   -2.0228155288
H        0.9643606079   -1.9869859574   -1.6180902676
H       -1.3491897094   -0.8023699898   -2.6726788743
H       -2.0426299426    0.7978846184   -0.4143553004
H       -1.2764783049    1.3831390757   -2.6660305898
C       -0.6300759882   -1.1296384396   -0.1922608709
H       -0.5100126844   -1.7588355282    0.8323493508
$end

$rem
method                b3lyp
basis                 6-31g(d)
unrestricted          true
symmetry              off
sym_ignore            true
incdft                false
incfock               0
scf_convergence       8
thresh                14
jobtype               opt
scf_guess             read
scf_algorithm         diis
max_scf_cycles        100
geom_opt_tol_gradient 600
geom_opt_tol_displacement 2400
geom_opt_tol_energy   200
geom_opt_max_cycles   100
$end

--------------------------------------------------------------

    2    -286.6162339899      5.95E-10 Convergence criterion met
 Total energy in the final basis set = -286.61623399
   19    -286.6597824050      2.84E-09 Convergence criterion met
 Total energy in the final basis set = -286.65978241
   18    -286.6925010231      5.85E-09 Convergence criterion met
 Total energy in the final basis set = -286.69250102
   16    -286.7165093425      9.46E-09 Convergence criterion met
 Total energy in the final basis set = -286.71650934
   16    -286.7354517218      8.75E-09 Convergence criterion met
 Total energy in the final basis set = -286.73545172
   16    -286.7513092227      5.89E-09 Convergence criterion met
 Total energy in the final basis set = -286.75130922
   15    -286.7654518692      9.41E-09 Convergence criterion met
 Total energy in the final basis set = -286.76545187
   15    -286.7786724359      7.08E-09 Convergence criterion met
    9    -286.8382922376      9.44E-09 Convergence criterion met
 Total energy in the final basis set = -286.83829224
   10    -286.8382963117      5.14E-09 Convergence criterion met
 Total energy in the final basis set = -286.83829631
   10    -286.8382999756      4.88E-09 Convergence criterion met
 Total energy in the final basis set = -286.83829998
   10    -286.8383031937      5.24E-09 Convergence criterion met
 Total energy in the final basis set = -286.83830319
   10    -286.8383059823      5.79E-09 Convergence criterion met
 Total energy in the final basis set = -286.83830598
   10    -286.8383083154      6.05E-09 Convergence criterion met
 Total energy in the final basis set = -286.83830832

             Standard Nuclear Orientation (Angstroms)
    I     Atom           X                Y                Z
 ----------------------------------------------------------------
    1      C       1.4224326024     0.0677614588    -1.6647222758
    2      C       0.4578185986    -1.1017293771    -1.5112264407
    3      C      -0.8358820593    -0.5368327973    -2.2017398017
    4      C      -1.2447688022     0.0230466196    -0.8257244594
    5      C      -0.5684058358     0.9065639818    -1.9682918905
    6      N       0.8401784353     1.1930437849    -1.8685853542
    7      H       2.4936171298     0.0005034631    -1.4816169619
    8      H       0.8356165241    -2.1034660262    -1.7252789077
    9      H      -1.4460077070    -0.9993766244    -2.9718715985
   10      H      -2.2163215661     0.3324245071    -0.4527906354
   11      H      -1.2092324012     1.6794996590    -2.3799189285
   12      C      -0.2588331238    -0.8397572114    -0.1880395268
   13      H       0.0974834846    -0.9134368389     0.8371560061
 ----------------------------------------------------------------

   10    -286.8383101667      5.58E-09 Convergence criterion met
 Total energy in the final basis set = -286.83831017
 Final energy is   -286.838310166682
 **  OPTIMIZATION CONVERGED  **

                    Orbital Energies (a.u.)
 --------------------------------------------------------------

 Alpha MOs
 -- Occupied --
-14.320 -10.223 -10.220 -10.210 -10.209 -10.208 -10.206  -0.968
 -0.856  -0.749  -0.664  -0.606  -0.571  -0.535  -0.517  -0.466
 -0.439  -0.405  -0.400  -0.356  -0.337  -0.298  -0.273  -0.256
 -0.182

 Beta MOs
 -- Occupied --
-14.319 -10.222 -10.219 -10.211 -10.209 -10.207 -10.193  -0.964
 -0.850  -0.742  -0.652  -0.601  -0.567  -0.528  -0.511  -0.460
 -0.434  -0.403  -0.394  -0.348  -0.332  -0.291  -0.262  -0.250

          Ground-State Mulliken Net Atomic Charges

     Atom                 Charge (a.u.)    Spin (a.u.)
  --------------------------------------------------------
      1 C                     0.088611       0.046297
      2 C                    -0.258630      -0.065604
      3 C                    -0.108107       0.078138
      4 C                    -0.163577      -0.095611
      5 C                    -0.018904       0.095979
      6 N                    -0.342092       0.040051
      7 H                     0.143039       0.001418
      8 H                     0.142875       0.022621
      9 H                     0.148128      -0.000836
     10 H                     0.147260       0.005267
     11 H                     0.151369       0.002862
     12 C                    -0.066197       0.888645
     13 H                     0.136226      -0.019227
  --------------------------------------------------------
  Sum of atomic charges =    -0.000000

                    Cartesian Multipole Moments
 -----------------------------------------------------------------
    Charge (ESU x 10^10)
                 0.0000
    Dipole Moment (Debye)
         X      -0.9568      Y      -1.8057      Z       0.1110
       Tot       2.0466
    Quadrupole Moments (Debye-Ang)
        XX     -37.4818     XY      -4.2519     YY     -43.1786
        XZ       3.1092     YZ       3.5841     ZZ     -40.0963

 Total job time:  1388.33s(wall), 1917.79s(cpu)
        *  Thank you very much for using Q-Chem.  Have a nice day.  *
