 Q-Chem 5.0, Q-Chem, Inc., Pleasanton, CA (2017)
 Q-Chem 5.0.2 for Intel X86 EM64T Linux

User input:
--------------------------------------------------------------
$molecule
0 2
C        1.4206594691   -0.1111226501    0.0430999976
C        0.5125533039   -1.2412255234    0.2829673926
C       -0.8321594061   -1.0781984824    0.2992591192
C       -1.4328804826    0.2445392633    0.2682569919
C       -0.6677151994    1.3502598310    0.1617924433
N        0.7284122085    1.2820861042   -0.0707216219
H        2.3702496320   -0.0901115583    0.5777231546
H        0.9586188109   -2.2134949401    0.4786334827
H       -1.4805376061   -1.9368087354    0.4515621458
H       -2.4984961290    0.3475530430    0.4528437568
H       -1.0521661882    2.3543207404    0.3171148700
C        1.2798470769    0.6801194113   -1.1921647583
H        0.6936145100    0.4120834964   -2.0703669742
$end

$rem
method                b3lyp
basis                 6-31g(d)
unrestricted          true
symmetry              off
sym_ignore            true
incdft                false
incfock               0
scf_convergence       8
thresh                14
jobtype               opt
scf_guess             read
scf_algorithm         diis
max_scf_cycles        100
geom_opt_tol_gradient 600
geom_opt_tol_displacement 2400
geom_opt_tol_energy   200
geom_opt_max_cycles   100
$end

--------------------------------------------------------------

    2    -286.8468582439      7.91E-10 Convergence criterion met
 Total energy in the final basis set = -286.84685824
   10    -286.8468603422      5.23E-09 Convergence criterion met
 Total energy in the final basis set = -286.84686034

             Standard Nuclear Orientation (Angstroms)
    I     Atom           X                Y                Z
 ----------------------------------------------------------------
    1      C       1.4199619807    -0.1098692332     0.0440979443
    2      C       0.5130542921    -1.2401301026     0.2841535998
    3      C      -0.8317349580    -1.0778411182     0.2980526908
    4      C      -1.4328067899     0.2449366061     0.2683870359
    5      C      -0.6677236124     1.3506470879     0.1622071885
    6      N       0.7276295003     1.2823467040    -0.0729682239
    7      H       2.3690195977    -0.0893156416     0.5794740774
    8      H       0.9587901336    -2.2128898375     0.4780776202
    9      H      -1.4801259869    -1.9368984267     0.4480343296
   10      H      -2.4980931375     0.3477146230     0.4551500082
   11      H      -1.0515177089     2.3545942214     0.3197283836
   12      C       1.2792157843     0.6783520278    -1.1929138510
   13      H       0.6943309048     0.4083530894    -2.0714808036
 ----------------------------------------------------------------

    9    -286.8468608245      5.44E-09 Convergence criterion met
 Total energy in the final basis set = -286.84686082
 Final energy is   -286.846860824519
 **  OPTIMIZATION CONVERGED  **

                    Orbital Energies (a.u.)
 --------------------------------------------------------------

 Alpha MOs
 -- Occupied --
-14.364 -10.236 -10.224 -10.220 -10.198 -10.197 -10.193  -0.987
 -0.810  -0.778  -0.661  -0.643  -0.577  -0.525  -0.498  -0.483
 -0.441  -0.421  -0.393  -0.372  -0.356  -0.312  -0.300  -0.224
 -0.182

 Beta MOs
 -- Occupied --
-14.360 -10.235 -10.222 -10.207 -10.199 -10.197 -10.193  -0.980
 -0.807  -0.775  -0.655  -0.639  -0.563  -0.521  -0.493  -0.481
 -0.437  -0.410  -0.389  -0.367  -0.352  -0.294  -0.288  -0.212

          Ground-State Mulliken Net Atomic Charges

     Atom                 Charge (a.u.)    Spin (a.u.)
  --------------------------------------------------------
      1 C                    -0.081360       0.004663
      2 C                    -0.107699      -0.060680
      3 C                    -0.143495       0.095322
      4 C                    -0.126723      -0.035446
      5 C                     0.008966       0.074286
      6 N                    -0.378521       0.131600
      7 H                     0.162031       0.001362
      8 H                     0.140846       0.001666
      9 H                     0.135463      -0.004229
     10 H                     0.135270       0.007061
     11 H                     0.154465      -0.003375
     12 C                    -0.049722       0.781384
     13 H                     0.150478       0.006387
  --------------------------------------------------------
  Sum of atomic charges =    -0.000000

                    Cartesian Multipole Moments
 -----------------------------------------------------------------
    Charge (ESU x 10^10)
                -0.0000
    Dipole Moment (Debye)
         X      -1.1378      Y      -1.1674      Z       0.2606
       Tot       1.6508
    Quadrupole Moments (Debye-Ang)
        XX     -39.2422     XY      -3.0827     YY     -39.5797
        XZ       0.9095     YZ      -0.3932     ZZ     -41.9926

 Total job time:  67.55s(wall), 82.74s(cpu)
        *  Thank you very much for using Q-Chem.  Have a nice day.  *
