 Q-Chem 5.0, Q-Chem, Inc., Pleasanton, CA (2017)
 Q-Chem 5.0.2 for Intel X86 EM64T Linux

User input:
--------------------------------------------------------------
$molecule
0 2
C        1.9297441815    0.2991650097   -0.2530683255
C        1.0570459765   -0.7092692137   -0.0889367841
C       -0.2958553305   -0.2035549229   -0.5147918060
C       -1.4200259690   -0.3069116492    0.5008080815
C        0.0681015559    1.2256658026   -0.8792961359
N        1.3188453734    1.4954163840   -0.7405527646
H        2.9969365914    0.3046926158   -0.0635002383
H        1.2569061964   -1.7116176767    0.2669339252
H       -0.6196304014   -0.7134808820   -1.4403409513
H       -2.3946980656    0.0596846148    0.1523797746
H       -0.6448942757    1.9663282926   -1.2358293459
C       -1.3018796140   -0.7742300390    1.7219715860
H       -1.9505962189   -0.9318883358    2.5742229843
$end

$rem
method                b3lyp
basis                 6-31g(d)
unrestricted          true
symmetry              off
sym_ignore            true
incdft                false
incfock               0
scf_convergence       8
thresh                14
jobtype               opt
scf_guess             read
scf_algorithm         diis
max_scf_cycles        100
geom_opt_tol_gradient 600
geom_opt_tol_displacement 2400
geom_opt_tol_energy   200
geom_opt_max_cycles   100
$end

--------------------------------------------------------------

    2    -286.8443461693      2.79E-09 Convergence criterion met
 Total energy in the final basis set = -286.84434617

             Standard Nuclear Orientation (Angstroms)
    I     Atom           X                Y                Z
 ----------------------------------------------------------------
    1      C       1.9297422556     0.2991168881    -0.2526573113
    2      C       1.0570735704    -0.7096274733    -0.0901344066
    3      C      -0.2958170713    -0.2031414375    -0.5146804747
    4      C      -1.4196471697    -0.3050597726     0.5012182847
    5      C       0.0683854724     1.2255441205    -0.8804870836
    6      N       1.3190729445     1.4953004550    -0.7417491575
    7      H       2.9965646582     0.3051956435    -0.0611440996
    8      H       1.2556969154    -1.7114331262     0.2678780079
    9      H      -0.6210130111    -0.7134281450    -1.4395546278
   10      H      -2.3948876372     0.0600949417     0.1528076925
   11      H      -0.6447813091     1.9662177077    -1.2367142952
   12      C      -1.3011481555    -0.7753599947     1.7212861227
   13      H      -1.9492414625    -0.9334198069     2.5739313485
 ----------------------------------------------------------------

   10    -286.8443477064      4.43E-09 Convergence criterion met
 Total energy in the final basis set = -286.84434771
 Final energy is   -286.844347706386
 **  OPTIMIZATION CONVERGED  **

                    Orbital Energies (a.u.)
 --------------------------------------------------------------

 Alpha MOs
 -- Occupied --
-14.329 -10.228 -10.216 -10.213 -10.210 -10.209 -10.190  -0.948
 -0.809  -0.745  -0.713  -0.598  -0.555  -0.544  -0.502  -0.479
 -0.442  -0.414  -0.393  -0.368  -0.344  -0.290  -0.257  -0.245
 -0.233

 Beta MOs
 -- Occupied --
-14.329 -10.228 -10.215 -10.212 -10.209 -10.198 -10.190  -0.948
 -0.803  -0.741  -0.703  -0.590  -0.554  -0.534  -0.500  -0.469
 -0.436  -0.412  -0.393  -0.364  -0.342  -0.285  -0.253  -0.238

          Ground-State Mulliken Net Atomic Charges

     Atom                 Charge (a.u.)    Spin (a.u.)
  --------------------------------------------------------
      1 C                     0.007785       0.001218
      2 C                    -0.123085       0.002702
      3 C                    -0.228351       0.042973
      4 C                    -0.118913      -0.167598
      5 C                     0.085618      -0.006773
      6 N                    -0.370698       0.006817
      7 H                     0.141681      -0.000005
      8 H                     0.147029       0.000259
      9 H                     0.180580      -0.004683
     10 H                     0.149384       0.078423
     11 H                     0.145843      -0.000024
     12 C                    -0.182014       1.042922
     13 H                     0.165141       0.003771
  --------------------------------------------------------
  Sum of atomic charges =    -0.000000

                    Cartesian Multipole Moments
 -----------------------------------------------------------------
    Charge (ESU x 10^10)
                 0.0000
    Dipole Moment (Debye)
         X      -1.9119      Y      -1.5768      Z       0.0321
       Tot       2.4784
    Quadrupole Moments (Debye-Ang)
        XX     -37.6237     XY      -4.0579     YY     -44.0716
        XZ       1.1283     YZ       0.2694     ZZ     -39.9502

 Total job time:  61.89s(wall), 49.92s(cpu)
        *  Thank you very much for using Q-Chem.  Have a nice day.  *
