 Q-Chem 5.0, Q-Chem, Inc., Pleasanton, CA (2017)
 Q-Chem 5.0.2 for Intel X86 EM64T Linux

User input:
--------------------------------------------------------------
$molecule
0 2
C        1.2440743142    0.2527275317    0.2503193254
C        0.5757887268   -1.1281582300   -0.2004073058
C       -0.7355507221   -0.8966105992   -0.7898570614
C       -1.0558106964    0.2139392876    0.2086124757
C       -0.4448641129    1.4714079870   -0.3979024983
N        0.8381818064    1.4624731756   -0.4190815764
H        2.2826029050    0.1720494619    0.5547101703
H        1.2235943286   -1.9933004274   -0.3012312881
H       -1.1404786482   -1.1003669026   -1.7784177914
H       -2.0651052431    0.2854326388    0.6198920614
H       -1.0204750992    2.2493841864   -0.8970717314
C        0.1461730167   -0.3443211364    1.0534239816
H        0.1518694241   -0.6446569734    2.0970112387
$end

$rem
method                b3lyp
basis                 6-31g(d)
unrestricted          true
symmetry              off
sym_ignore            true
incdft                false
incfock               0
scf_convergence       8
thresh                14
jobtype               opt
scf_guess             read
scf_algorithm         diis
max_scf_cycles        100
geom_opt_tol_gradient 600
geom_opt_tol_displacement 2400
geom_opt_tol_energy   200
geom_opt_max_cycles   100
$end

--------------------------------------------------------------

    2    -286.8383370207      3.62E-09 Convergence criterion met
 Total energy in the final basis set = -286.83833702

             Standard Nuclear Orientation (Angstroms)
    I     Atom           X                Y                Z
 ----------------------------------------------------------------
    1      C       1.2441631967     0.2527747764     0.2499360090
    2      C       0.5759014290    -1.1279820720    -0.2003218474
    3      C      -0.7354266873    -0.8967979052    -0.7899522566
    4      C      -1.0555743641     0.2138508211     0.2083575039
    5      C      -0.4450589844     1.4712584418    -0.3984887174
    6      N       0.8380857821     1.4627544677    -0.4191079216
    7      H       2.2828238428     0.1723097993     0.5540202425
    8      H       1.2226993344    -1.9940362094    -0.2997201686
    9      H      -1.1399775854    -1.1006839882    -1.7786382003
   10      H      -2.0650003110     0.2853793900     0.6194096678
   11      H      -1.0208214610     2.2503415886    -0.8956654445
   12      C       0.1462204508    -0.3439019578     1.0534365566
   13      H       0.1519653572    -0.6452671524     2.0967345770
 ----------------------------------------------------------------

    9    -286.8383380255      5.98E-09 Convergence criterion met
 Total energy in the final basis set = -286.83833803
 Final energy is   -286.838338025488
 **  OPTIMIZATION CONVERGED  **

                    Orbital Energies (a.u.)
 --------------------------------------------------------------

 Alpha MOs
 -- Occupied --
-14.320 -10.224 -10.220 -10.210 -10.209 -10.208 -10.206  -0.968
 -0.856  -0.749  -0.664  -0.606  -0.571  -0.535  -0.517  -0.467
 -0.439  -0.405  -0.400  -0.356  -0.336  -0.299  -0.274  -0.256
 -0.182

 Beta MOs
 -- Occupied --
-14.319 -10.222 -10.219 -10.211 -10.209 -10.207 -10.193  -0.964
 -0.850  -0.741  -0.652  -0.602  -0.567  -0.528  -0.511  -0.461
 -0.434  -0.402  -0.393  -0.348  -0.331  -0.292  -0.262  -0.250

          Ground-State Mulliken Net Atomic Charges

     Atom                 Charge (a.u.)    Spin (a.u.)
  --------------------------------------------------------
      1 C                    -0.019023       0.098494
      2 C                    -0.163849      -0.096377
      3 C                    -0.066199       0.887560
      4 C                    -0.258119      -0.065736
      5 C                     0.088741       0.048231
      6 N                    -0.342279       0.038429
      7 H                     0.151405       0.002781
      8 H                     0.147252       0.005261
      9 H                     0.136260      -0.019254
     10 H                     0.142843       0.022782
     11 H                     0.143034       0.001304
     12 C                    -0.108106       0.077229
     13 H                     0.148040      -0.000704
  --------------------------------------------------------
  Sum of atomic charges =    -0.000000

                    Cartesian Multipole Moments
 -----------------------------------------------------------------
    Charge (ESU x 10^10)
                -0.0000
    Dipole Moment (Debye)
         X      -1.1635      Y      -1.4426      Z       0.8707
       Tot       2.0477
    Quadrupole Moments (Debye-Ang)
        XX     -38.8026     XY      -4.9523     YY     -43.0448
        XZ       2.2770     YZ       0.6587     ZZ     -39.4765

 Total job time:  14.69s(wall), 45.75s(cpu)
        *  Thank you very much for using Q-Chem.  Have a nice day.  *
