 Q-Chem 5.0, Q-Chem, Inc., Pleasanton, CA (2017)
 Q-Chem 5.0.2 for Intel X86 EM64T Linux

User input:
--------------------------------------------------------------
$molecule
0 2
C        1.6762327771    0.3118488429   -2.0498985554
C        0.9809087917   -0.9649021283   -1.7960368139
C       -0.6093837569   -0.9729785490   -2.1421837263
C       -1.3571024570    0.4154489935   -0.5399014525
C       -0.7167289281    0.7572674339   -1.9459244525
N        0.9103578192    1.3429536066   -2.4054869361
H        2.6187789141    0.7869825202   -1.7230626299
H        1.5414952881   -1.8662665129   -1.4633349221
H       -0.8875984786   -1.8673350253   -2.7224592729
H       -2.4157052151    0.5873865979   -0.3837802757
H       -1.3136397880    1.3715558277   -2.7252964269
C       -0.9132013928   -0.9298521704   -0.7905408777
H       -1.3062379895   -1.8160286993   -0.5293913518
$end

$rem
method                b3lyp
basis                 6-31g(d)
unrestricted          true
symmetry              off
sym_ignore            true
incdft                false
incfock               0
scf_convergence       8
thresh                14
jobtype               opt
scf_guess             read
scf_algorithm         diis
max_scf_cycles        100
geom_opt_tol_gradient 600
geom_opt_tol_displacement 2400
geom_opt_tol_energy   200
geom_opt_max_cycles   100
$end

--------------------------------------------------------------

    2    -286.6753260616      2.98E-09 Convergence criterion met
 Total energy in the final basis set = -286.67532606
   17    -286.7235159808      5.32E-09 Convergence criterion met
 Total energy in the final basis set = -286.72351598
   17    -286.7601272681      5.56E-09 Convergence criterion met
 Total energy in the final basis set = -286.76012727
   17    -286.7872332883      7.07E-09 Convergence criterion met
 Total energy in the final basis set = -286.78723329
   17    -286.8069980554      8.54E-09 Convergence criterion met
 Total energy in the final basis set = -286.80699806
   17    -286.8226899021      5.42E-09 Convergence criterion met
 Total energy in the final basis set = -286.82268990
   16    -286.8358041423      7.66E-09 Convergence criterion met
 Total energy in the final basis set = -286.83580414
   16    -286.8464497014      4.46E-09 Convergence criterion met
   13    -286.8752931953      3.07E-09 Convergence criterion met
 Total energy in the final basis set = -286.87529320
   13    -286.8752674104      4.22E-09 Convergence criterion met
 Total energy in the final basis set = -286.87526741
   12    -286.8753167630      6.41E-09 Convergence criterion met
 Total energy in the final basis set = -286.87531676
   13    -286.8754023048      4.12E-09 Convergence criterion met
 Total energy in the final basis set = -286.87540230
   12    -286.8754475984      3.44E-09 Convergence criterion met
 Total energy in the final basis set = -286.87544760
   11    -286.8754496250      6.81E-09 Convergence criterion met
 Total energy in the final basis set = -286.87544962

             Standard Nuclear Orientation (Angstroms)
    I     Atom           X                Y                Z
 ----------------------------------------------------------------
    1      C       1.5201082916     0.3799822248    -1.8553281715
    2      C       1.1011031061    -0.9579837700    -1.9250898435
    3      C      -0.3834957341    -0.9734613415    -2.0848432552
    4      C      -1.4707401285     0.3357380788    -0.8166144713
    5      C      -0.6912116943     0.5770520297    -2.1096047794
    6      N       0.5663331470     1.3005843891    -1.9523876423
    7      H       2.5519121562     0.6952320927    -1.7058051737
    8      H       1.7438172621    -1.8269747852    -1.8351620399
    9      H      -0.7548328588    -1.6019732208    -2.9049649288
   10      H      -1.9929666279     1.0204817158    -0.1552515684
   11      H      -1.2690077801     0.9728788048    -2.9539696004
   12      C      -1.2245015017    -0.9787609584    -0.7977858334
   13      H      -1.4883420534    -1.7867145221    -0.1204903860
 ----------------------------------------------------------------

   11    -286.8754515726      3.41E-09 Convergence criterion met
 Total energy in the final basis set = -286.87545157
 Final energy is   -286.875451572585
 **  OPTIMIZATION CONVERGED  **

                    Orbital Energies (a.u.)
 --------------------------------------------------------------

 Alpha MOs
 -- Occupied --
-14.328 -10.217 -10.216 -10.207 -10.202 -10.200 -10.195  -0.944
 -0.837  -0.752  -0.665  -0.618  -0.554  -0.523  -0.515  -0.481
 -0.428  -0.402  -0.386  -0.355  -0.341  -0.322  -0.270  -0.253
 -0.203

 Beta MOs
 -- Occupied --
-14.318 -10.219 -10.218 -10.203 -10.199 -10.198 -10.194  -0.932
 -0.831  -0.734  -0.665  -0.610  -0.549  -0.520  -0.512  -0.475
 -0.420  -0.396  -0.381  -0.343  -0.334  -0.301  -0.264  -0.246

          Ground-State Mulliken Net Atomic Charges

     Atom                 Charge (a.u.)    Spin (a.u.)
  --------------------------------------------------------
      1 C                     0.048213      -0.230894
      2 C                    -0.114770       0.693623
      3 C                    -0.193350      -0.054078
      4 C                    -0.075739       0.031699
      5 C                    -0.062454      -0.027584
      6 N                    -0.351303       0.517004
      7 H                     0.140556       0.007444
      8 H                     0.143387      -0.032161
      9 H                     0.148098       0.025234
     10 H                     0.137390       0.003583
     11 H                     0.151570       0.025341
     12 C                    -0.104885       0.033915
     13 H                     0.133287       0.006874
  --------------------------------------------------------
  Sum of atomic charges =    -0.000000

                    Cartesian Multipole Moments
 -----------------------------------------------------------------
    Charge (ESU x 10^10)
                -0.0000
    Dipole Moment (Debye)
         X      -0.2980      Y      -2.1300      Z       0.1096
       Tot       2.1536
    Quadrupole Moments (Debye-Ang)
        XX     -37.3651     XY      -2.0897     YY     -42.0467
        XZ       0.1921     YZ       3.9284     ZZ     -40.3379

 Total job time:  658.17s(wall), 928.76s(cpu)
        *  Thank you very much for using Q-Chem.  Have a nice day.  *
