 Q-Chem 5.0, Q-Chem, Inc., Pleasanton, CA (2017)
 Q-Chem 5.0.2 for Intel X86 EM64T Linux

User input:
--------------------------------------------------------------
$molecule
0 2
C        1.5143146530    0.5169208136   -0.5447309115
C        1.2756695943   -0.8261651460   -0.3177180713
C        0.0609432682   -1.4488562723    0.1419877731
C       -1.3866115770    0.5854280170    0.3805146371
C       -0.5363371001    1.6029706997   -0.0067970645
N        0.7521456300    1.6274969491   -0.4236749827
H        2.5227340230    0.7491750890   -0.8943320385
H        2.1133214216   -1.4916837047   -0.5119802489
H        0.0958371144   -2.5308350293    0.2532017436
H       -2.3883953652    0.8949583120    0.6687326788
H       -0.9748159933    2.6027984089    0.0217636494
C       -1.1124479783   -0.8275575084    0.4492731770
H       -1.9363576907   -1.4546506287    0.7837596584
$end

$rem
method                b3lyp
basis                 6-31g(d)
unrestricted          true
symmetry              off
sym_ignore            true
incdft                false
incfock               0
scf_convergence       8
thresh                14
jobtype               opt
scf_guess             read
scf_algorithm         diis
max_scf_cycles        100
geom_opt_tol_gradient 600
geom_opt_tol_displacement 2400
geom_opt_tol_energy   200
geom_opt_max_cycles   100
$end

--------------------------------------------------------------

    2    -286.9243173290      8.16E-10 Convergence criterion met
 Total energy in the final basis set = -286.92431733

             Standard Nuclear Orientation (Angstroms)
    I     Atom           X                Y                Z
 ----------------------------------------------------------------
    1      C       1.5144181106     0.5168101831    -0.5443539359
    2      C       1.2757922631    -0.8263113927    -0.3174248276
    3      C       0.0610287266    -1.4491084562     0.1422301100
    4      C      -1.3867784687     0.5856105646     0.3804640945
    5      C      -0.5363022755     1.6032401781    -0.0071493014
    6      N       0.7522051644     1.6277081438    -0.4239556687
    7      H       2.5227384364     0.7493717014    -0.8943313437
    8      H       2.1133109609    -1.4918781735    -0.5121087034
    9      H       0.0956743672    -2.5311996458     0.2521189319
   10      H      -2.3889162661     0.8947105374     0.6681093361
   11      H      -0.9747390155     2.6032147195     0.0219548571
   12      C      -1.1123049806    -0.8275045066     0.4498644622
   13      H      -1.9361270228    -1.4546638531     0.7845819887
 ----------------------------------------------------------------

   12    -286.9243179091      4.06E-09 Convergence criterion met
 Total energy in the final basis set = -286.92431791
 Final energy is   -286.924317909116
 **  OPTIMIZATION CONVERGED  **

                    Orbital Energies (a.u.)
 --------------------------------------------------------------

 Alpha MOs
 -- Occupied --
-14.322 -10.232 -10.232 -10.212 -10.211 -10.201 -10.200  -0.922
 -0.818  -0.784  -0.693  -0.667  -0.551  -0.537  -0.518  -0.449
 -0.439  -0.414  -0.394  -0.386  -0.349  -0.322  -0.299  -0.251
 -0.162

 Beta MOs
 -- Occupied --
-14.314 -10.233 -10.233 -10.210 -10.210 -10.196 -10.196  -0.911
 -0.809  -0.777  -0.681  -0.665  -0.546  -0.534  -0.514  -0.447
 -0.438  -0.411  -0.383  -0.373  -0.348  -0.295  -0.276  -0.241

          Ground-State Mulliken Net Atomic Charges

     Atom                 Charge (a.u.)    Spin (a.u.)
  --------------------------------------------------------
      1 C                     0.036366      -0.115033
      2 C                    -0.132231       0.351111
      3 C                    -0.110722       0.088633
      4 C                    -0.130919       0.342978
      5 C                     0.034856      -0.110208
      6 N                    -0.423341       0.386797
      7 H                     0.142527       0.003522
      8 H                     0.134349      -0.018525
      9 H                     0.141981      -0.006392
     10 H                     0.134419      -0.018147
     11 H                     0.142670       0.003283
     12 C                    -0.111861       0.098865
     13 H                     0.141904      -0.006883
  --------------------------------------------------------
  Sum of atomic charges =    -0.000000

                    Cartesian Multipole Moments
 -----------------------------------------------------------------
    Charge (ESU x 10^10)
                -0.0000
    Dipole Moment (Debye)
         X      -0.9153      Y      -1.9824      Z       0.5162
       Tot       2.2437
    Quadrupole Moments (Debye-Ang)
        XX     -36.4674     XY      -3.2047     YY     -40.6862
        XZ      -1.8565     YZ       0.7317     ZZ     -42.8467

 Total job time:  13.50s(wall), 49.91s(cpu)
        *  Thank you very much for using Q-Chem.  Have a nice day.  *
