 Q-Chem 5.0, Q-Chem, Inc., Pleasanton, CA (2017)
 Q-Chem 5.0.2 for Intel X86 EM64T Linux

User input:
--------------------------------------------------------------
$molecule
0 2
C        1.5200175892    0.4258871807   -0.2674924398
C        0.7040930143   -0.8341237823    0.0296178461
C       -0.5138236743   -0.5670896138   -0.8863604372
C       -1.0883740671    0.3373673747    0.6435784656
C       -0.5773086353    0.9042937100   -0.6816083330
N        0.7962936072    1.4221318695   -0.6341577794
H        2.5865037431    0.5278563325   -0.0783760758
H        1.2199154053   -1.7936748067    0.0137148123
H       -1.1173050561   -1.2399639544   -1.4794878908
H       -2.0597768039    0.6259645248    1.0355800294
H       -1.2838303159    1.5117441765   -1.2396797539
C       -0.1305996837   -0.4835585560    1.2605151976
H       -0.0733804064   -0.8533713129    2.2747208754
$end

$rem
method                b3lyp
basis                 6-31+g(d,p)
unrestricted          true
symmetry              off
sym_ignore            true
incdft                false
incfock               0
scf_convergence       8
thresh                14
jobtype               rpath
scf_guess             core
scf_guess_mix         5
scf_algorithm         diis
max_scf_cycles        100
rpath_direction       1
rpath_tol_displacement 1000
rpath_max_cycles      50
geom_opt_max_cycles   300
geom_opt_hessian      read
$end

--------------------------------------------------------------

   22    -286.8475538750      6.51E-09 Convergence criterion met
 Total energy in the final basis set = -286.84755387
   22    -286.8489711745      7.91E-09 Convergence criterion met
 Total energy in the final basis set = -286.84897117
   22    -286.8489195299      5.70E-09 Convergence criterion met
 Total energy in the final basis set = -286.84891953
   22    -286.8489744836      7.84E-09 Convergence criterion met
 Total energy in the final basis set = -286.84897448
   21    -286.8519015060      8.29E-09 Convergence criterion met
 Total energy in the final basis set = -286.85190151
   21    -286.8516489887      8.00E-09 Convergence criterion met
 Total energy in the final basis set = -286.85164899
   21    -286.8519095761      8.25E-09 Convergence criterion met
 Total energy in the final basis set = -286.85190958
   21    -286.8544574323      3.56E-09 Convergence criterion met
 Total energy in the final basis set = -286.87268993
   21    -286.8734692313      5.47E-09 Convergence criterion met
 Total energy in the final basis set = -286.87346923
   21    -286.8734508577      6.36E-09 Convergence criterion met
 Total energy in the final basis set = -286.87345086
   21    -286.8734730548      6.09E-09 Convergence criterion met
 Total energy in the final basis set = -286.87347305
   21    -286.8703330467      4.80E-09 Convergence criterion met
 Total energy in the final basis set = -286.87033305
   21    -286.8734756950      6.09E-09 Convergence criterion met
 Total energy in the final basis set = -286.87347569
   21    -286.8734752546      5.95E-09 Convergence criterion met
 Total energy in the final basis set = -286.87347525
   21    -286.8734764811      6.05E-09 Convergence criterion met
 Total energy in the final basis set = -286.87347648

                    Orbital Energies (a.u.)
 --------------------------------------------------------------

 Alpha MOs
 -- Occupied --
-14.337 -10.235 -10.231 -10.221 -10.216 -10.213 -10.209  -0.965
 -0.832  -0.737  -0.715  -0.589  -0.583  -0.539  -0.520  -0.481
 -0.429  -0.420  -0.391  -0.382  -0.358  -0.305  -0.283  -0.271
 -0.206

 Beta MOs
 -- Occupied --
-14.336 -10.235 -10.231 -10.221 -10.211 -10.208 -10.202  -0.961
 -0.827  -0.735  -0.700  -0.587  -0.571  -0.536  -0.517  -0.472
 -0.426  -0.416  -0.389  -0.379  -0.352  -0.298  -0.273  -0.268

          Ground-State Mulliken Net Atomic Charges

     Atom                 Charge (a.u.)    Spin (a.u.)
  --------------------------------------------------------
      1 C                    -0.092226      -0.031936
      2 C                     0.010391      -0.061370
      3 C                    -0.269986       1.034241
      4 C                    -0.148183       0.044335
      5 C                     0.022793      -0.089131
      6 N                    -0.203335       0.026062
      7 H                     0.137381      -0.000088
      8 H                     0.124783       0.003456
      9 H                     0.138764      -0.026091
     10 H                     0.138884       0.000747
     11 H                     0.129447       0.003604
     12 C                    -0.127169       0.096106
     13 H                     0.138455       0.000065
  --------------------------------------------------------
  Sum of atomic charges =     0.000000

                    Cartesian Multipole Moments
 -----------------------------------------------------------------
    Charge (ESU x 10^10)
                 0.0000
    Dipole Moment (Debye)
         X      -0.6054      Y      -2.1343      Z       1.3393
       Tot       2.5914
    Quadrupole Moments (Debye-Ang)
        XX     -37.7694     XY      -3.9297     YY     -45.1840
        XZ       1.6722     YZ       0.7204     ZZ     -42.5111

             Standard Nuclear Orientation (Angstroms)
    I     Atom           X                Y                Z
 ----------------------------------------------------------------
    1      C       1.5200175892     0.4258871807    -0.2674924398
    2      C       0.7040930143    -0.8341237823     0.0296178461
    3      C      -0.5138236743    -0.5670896138    -0.8863604372
    4      C      -1.0883740671     0.3373673747     0.6435784656
    5      C      -0.5773086353     0.9042937100    -0.6816083330
    6      N       0.7962936072     1.4221318695    -0.6341577794
    7      H       2.5865037431     0.5278563325    -0.0783760758
    8      H       1.2199154053    -1.7936748067     0.0137148123
    9      H      -1.1173050561    -1.2399639544    -1.4794878908
   10      H      -2.0597768039     0.6259645248     1.0355800294
   11      H      -1.2838303159     1.5117441765    -1.2396797539
   12      C      -0.1305996837    -0.4835585560     1.2605151976
   13      H      -0.0733804064    -0.8533713129     2.2747208754
 ----------------------------------------------------------------

 Total job time:  17825.64s(wall), 30265.69s(cpu)
        *  Thank you very much for using Q-Chem.  Have a nice day.  *
