 Q-Chem 5.0, Q-Chem, Inc., Pleasanton, CA (2017)
 Q-Chem 5.0.2 for Intel X86 EM64T Linux

User input:
--------------------------------------------------------------
$molecule
0 2
C        1.5200175892    0.4258871807   -0.2674924398
C        0.7040930143   -0.8341237823    0.0296178461
C       -0.5138236743   -0.5670896138   -0.8863604372
C       -1.0883740671    0.3373673747    0.6435784656
C       -0.5773086353    0.9042937100   -0.6816083330
N        0.7962936072    1.4221318695   -0.6341577794
H        2.5865037431    0.5278563325   -0.0783760758
H        1.2199154053   -1.7936748067    0.0137148123
H       -1.1173050561   -1.2399639544   -1.4794878908
H       -2.0597768039    0.6259645248    1.0355800294
H       -1.2838303159    1.5117441765   -1.2396797539
C       -0.1305996837   -0.4835585560    1.2605151976
H       -0.0733804064   -0.8533713129    2.2747208754
$end

$rem
method                b3lyp
basis                 6-31+g(d,p)
unrestricted          true
symmetry              off
sym_ignore            true
incdft                false
incfock               0
scf_convergence       6
thresh                14
jobtype               sp
scf_guess             read
scf_algorithm         diis
max_scf_cycles        100
stability_analysis    true
max_cis_cycles        100
cis_n_roots           4
$end

--------------------------------------------------------------

             Standard Nuclear Orientation (Angstroms)
    I     Atom           X                Y                Z
 ----------------------------------------------------------------
    1      C       1.5200175892     0.4258871807    -0.2674924398
    2      C       0.7040930143    -0.8341237823     0.0296178461
    3      C      -0.5138236743    -0.5670896138    -0.8863604372
    4      C      -1.0883740671     0.3373673747     0.6435784656
    5      C      -0.5773086353     0.9042937100    -0.6816083330
    6      N       0.7962936072     1.4221318695    -0.6341577794
    7      H       2.5865037431     0.5278563325    -0.0783760758
    8      H       1.2199154053    -1.7936748067     0.0137148123
    9      H      -1.1173050561    -1.2399639544    -1.4794878908
   10      H      -2.0597768039     0.6259645248     1.0355800294
   11      H      -1.2838303159     1.5117441765    -1.2396797539
   12      C      -0.1305996837    -0.4835585560     1.2605151976
   13      H      -0.0733804064    -0.8533713129     2.2747208754
 ----------------------------------------------------------------

    2    -286.8475538750      2.89E-09 Convergence criterion met
 Total energy in the final basis set = -286.84755387

         TDDFT/TDA Excitation Energies
 ---------------------------------------------------

 Excited state   1: excitation energy (eV) =    2.5782
 Total energy for state  1:                  -286.75280819 au
    <S**2>     :  0.7785
    Trans. Mom.:  0.2657 X   0.1673 Y   0.3376 Z
    Strength   :     0.0134284336
    S(  1) --> V(  1) amplitude =  0.8606 alpha
    S(  1) --> V(  2) amplitude = -0.4229 alpha
    D( 24) --> S(  1) amplitude = -0.1670 beta

 Excited state   2: excitation energy (eV) =    2.8302
 Total energy for state  2:                  -286.74354543 au
    <S**2>     :  0.7984
    Trans. Mom.:  0.3778 X   0.2077 Y  -0.2951 Z
    Strength   :     0.0189303316
    S(  1) --> V(  1) amplitude =  0.4659 alpha
    S(  1) --> V(  2) amplitude =  0.8463 alpha
    D( 24) --> S(  1) amplitude =  0.1612 beta

 Excited state   3: excitation energy (eV) =    3.3864
 Total energy for state  3:                  -286.72310676 au
    <S**2>     :  0.7859
    Trans. Mom.: -0.0145 X   0.1291 Y   0.2505 Z
    Strength   :     0.0066076604
    S(  1) --> V(  3) amplitude =  0.9859 alpha

 Excited state   4: excitation energy (eV) =    3.9258
 Total energy for state  4:                  -286.70328221 au
    <S**2>     :  0.7898
    Trans. Mom.:  0.2088 X  -0.0703 Y   0.1531 Z
    Strength   :     0.0069244589
    S(  1) --> V(  4) amplitude =  0.9824 alpha

 ---------------------------------------------------

                    Orbital Energies (a.u.)
 --------------------------------------------------------------

 Alpha MOs
 -- Occupied --
-14.330 -10.235 -10.230 -10.229 -10.226 -10.221 -10.206  -0.972
 -0.849  -0.751  -0.696  -0.601  -0.585  -0.548  -0.522  -0.472
 -0.444  -0.424  -0.409  -0.378  -0.356  -0.296  -0.284  -0.277
 -0.157

 Beta MOs
 -- Occupied --
-14.329 -10.235 -10.231 -10.230 -10.222 -10.217 -10.197  -0.968
 -0.841  -0.747  -0.684  -0.597  -0.577  -0.541  -0.519  -0.463
 -0.441  -0.419  -0.406  -0.373  -0.351  -0.287  -0.275  -0.265

          Ground-State Mulliken Net Atomic Charges

     Atom                 Charge (a.u.)    Spin (a.u.)
  --------------------------------------------------------
      1 C                    -0.069824      -0.002341
      2 C                     0.001284      -0.101933
      3 C                    -0.199883       0.596101
      4 C                    -0.102934      -0.234135
      5 C                    -0.133545      -0.020982
      6 N                    -0.179468       0.062405
      7 H                     0.132699       0.001550
      8 H                     0.129148       0.010609
      9 H                     0.145967      -0.024522
     10 H                     0.139210       0.010355
     11 H                     0.138901       0.004347
     12 C                    -0.140592       0.727180
     13 H                     0.139037      -0.028636
  --------------------------------------------------------
  Sum of atomic charges =     0.000000

                    Cartesian Multipole Moments
 -----------------------------------------------------------------
    Charge (ESU x 10^10)
                 0.0000
    Dipole Moment (Debye)
         X      -1.1094      Y      -2.2919      Z       0.5224
       Tot       2.5993
    Quadrupole Moments (Debye-Ang)
        XX     -37.6965     XY      -4.3932     YY     -45.6757
        XZ       1.7818     YZ       1.2673     ZZ     -41.9839

 Total job time:  317.09s(wall), 186.77s(cpu)
        *  Thank you very much for using Q-Chem.  Have a nice day.  *
