 Q-Chem 5.0, Q-Chem, Inc., Pleasanton, CA (2017)
 Q-Chem 5.0.2 for Intel X86 EM64T Linux

User input:
--------------------------------------------------------------
$molecule
0 2
C        1.4956025620    0.4670410401   -0.2289301929
C        0.7034406651   -0.8338871506    0.0039744227
C       -0.3040337305   -0.6069548509   -1.1287569747
C       -1.0784236043    0.4520358916    0.7473299644
C       -0.6401905716    0.8106003920   -0.6828536631
N        0.7468592491    1.4284081184   -0.6137036797
H        2.5656966896    0.5836322925   -0.0710247403
H        1.2670569459   -1.7648816519    0.0572083986
H       -1.0510917850   -1.3449674063   -1.4127903032
H       -1.8838475559    0.9318405767    1.2906739532
H       -1.3225631791    1.4223563015   -1.2692059068
C       -0.2618234258   -0.5303782599    1.1692420315
H       -0.2366822596   -1.0148452932    2.1388366903
$end

$rem
method                b3lyp
basis                 6-31+g(d,p)
unrestricted          true
symmetry              off
sym_ignore            true
incdft                false
incfock               0
scf_convergence       8
thresh                14
jobtype               sp
scf_guess             read
scf_algorithm         diis
max_scf_cycles        100
scf_final_print       1
$end

--------------------------------------------------------------

             Standard Nuclear Orientation (Angstroms)
    I     Atom           X                Y                Z
 ----------------------------------------------------------------
    1      C       1.4956025620     0.4670410401    -0.2289301929
    2      C       0.7034406651    -0.8338871506     0.0039744227
    3      C      -0.3040337305    -0.6069548509    -1.1287569747
    4      C      -1.0784236043     0.4520358916     0.7473299644
    5      C      -0.6401905716     0.8106003920    -0.6828536631
    6      N       0.7468592491     1.4284081184    -0.6137036797
    7      H       2.5656966896     0.5836322925    -0.0710247403
    8      H       1.2670569459    -1.7648816519     0.0572083986
    9      H      -1.0510917850    -1.3449674063    -1.4127903032
   10      H      -1.8838475559     0.9318405767     1.2906739532
   11      H      -1.3225631791     1.4223563015    -1.2692059068
   12      C      -0.2618234258    -0.5303782599     1.1692420315
   13      H      -0.2366822596    -1.0148452932     2.1388366903
 ----------------------------------------------------------------

    2    -286.8734738781      1.33E-09 Convergence criterion met
 Total energy in the final basis set = -286.87347388

                    Orbital Energies (a.u.)
 --------------------------------------------------------------

 Alpha MOs
 -- Occupied --
-14.337 -10.235 -10.231 -10.221 -10.216 -10.213 -10.209  -0.965
 -0.832  -0.737  -0.715  -0.589  -0.583  -0.539  -0.520  -0.481
 -0.429  -0.420  -0.391  -0.382  -0.358  -0.305  -0.283  -0.271
 -0.206

 Beta MOs
 -- Occupied --
-14.336 -10.235 -10.231 -10.221 -10.211 -10.208 -10.203  -0.961
 -0.827  -0.735  -0.700  -0.587  -0.571  -0.536  -0.517  -0.472
 -0.426  -0.416  -0.389  -0.379  -0.352  -0.298  -0.273  -0.268

          Ground-State Mulliken Net Atomic Charges

     Atom                 Charge (a.u.)    Spin (a.u.)
  --------------------------------------------------------
      1 C                    -0.092306      -0.031927
      2 C                     0.010433      -0.061334
      3 C                    -0.269849       1.034224
      4 C                    -0.148350       0.044432
      5 C                     0.022799      -0.089103
      6 N                    -0.203406       0.026057
      7 H                     0.137399      -0.000087
      8 H                     0.124798       0.003452
      9 H                     0.138764      -0.026046
     10 H                     0.138858       0.000724
     11 H                     0.129424       0.003598
     12 C                    -0.127031       0.095947
     13 H                     0.138466       0.000064
  --------------------------------------------------------
  Sum of atomic charges =     0.000000

                    Cartesian Multipole Moments
 -----------------------------------------------------------------
    Charge (ESU x 10^10)
                 0.0000
    Dipole Moment (Debye)
         X      -0.6102      Y      -2.1354      Z       1.3361
       Tot       2.5918
    Quadrupole Moments (Debye-Ang)
        XX     -37.7770     XY      -3.9400     YY     -45.1907
        XZ       1.6776     YZ       0.7104     ZZ     -42.5024

 Total job time:  15.11s(wall), 12.05s(cpu)
        *  Thank you very much for using Q-Chem.  Have a nice day.  *
