 Q-Chem 5.0, Q-Chem, Inc., Pleasanton, CA (2017)
 Q-Chem 5.0.2 for Intel X86 EM64T Linux

User input:
--------------------------------------------------------------
$molecule
0 2
C        1.5286564080    0.3902593351   -0.2351654439
C        0.6872409828   -0.8528845778    0.0304922217
C       -0.6295034296   -0.5150137283   -0.7595644898
C       -1.1528297976    0.1518669129    0.5354444224
C       -0.5304017605    0.9647109220   -0.6913757028
N        0.8347262269    1.4122124347   -0.5895994139
H        2.5936668892    0.4665516664   -0.0262275024
H        1.1788224180   -1.8235410863   -0.0544178491
H       -1.1605439096   -1.1327097683   -1.4764933270
H       -2.1642826977    0.3944223823    0.8427326584
H       -1.2332577065    1.6097159869   -1.2070020273
C       -0.1130656199   -0.5300159174    1.2902507148
H        0.1607719970   -0.5355745619    2.3409257385
$end

$rem
method                b3lyp
basis                 6-31+g(d,p)
unrestricted          true
symmetry              off
sym_ignore            true
incdft                false
incfock               0
scf_convergence       8
thresh                14
jobtype               sp
scf_guess             read
scf_algorithm         diis
max_scf_cycles        100
scf_final_print       1
$end

--------------------------------------------------------------

             Standard Nuclear Orientation (Angstroms)
    I     Atom           X                Y                Z
 ----------------------------------------------------------------
    1      C       1.5286564080     0.3902593351    -0.2351654439
    2      C       0.6872409828    -0.8528845778     0.0304922217
    3      C      -0.6295034296    -0.5150137283    -0.7595644898
    4      C      -1.1528297976     0.1518669129     0.5354444224
    5      C      -0.5304017605     0.9647109220    -0.6913757028
    6      N       0.8347262269     1.4122124347    -0.5895994139
    7      H       2.5936668892     0.4665516664    -0.0262275024
    8      H       1.1788224180    -1.8235410863    -0.0544178491
    9      H      -1.1605439096    -1.1327097683    -1.4764933270
   10      H      -2.1642826977     0.3944223823     0.8427326584
   11      H      -1.2332577065     1.6097159869    -1.2070020273
   12      C      -0.1130656199    -0.5300159174     1.2902507148
   13      H       0.1607719970    -0.5355745619     2.3409257385
 ----------------------------------------------------------------

    2    -286.8593997584      1.13E-09 Convergence criterion met
 Total energy in the final basis set = -286.85939976

                    Orbital Energies (a.u.)
 --------------------------------------------------------------

 Alpha MOs
 -- Occupied --
-14.334 -10.234 -10.230 -10.220 -10.219 -10.219 -10.216  -0.979
 -0.867  -0.759  -0.674  -0.616  -0.580  -0.544  -0.524  -0.475
 -0.448  -0.415  -0.410  -0.366  -0.346  -0.309  -0.285  -0.267
 -0.188

 Beta MOs
 -- Occupied --
-14.333 -10.232 -10.229 -10.221 -10.220 -10.217 -10.204  -0.975
 -0.861  -0.751  -0.662  -0.611  -0.576  -0.537  -0.518  -0.469
 -0.444  -0.412  -0.404  -0.358  -0.342  -0.302  -0.274  -0.262

          Ground-State Mulliken Net Atomic Charges

     Atom                 Charge (a.u.)    Spin (a.u.)
  --------------------------------------------------------
      1 C                    -0.051862       0.054086
      2 C                    -0.028160      -0.115356
      3 C                    -0.061799       0.086710
      4 C                    -0.056248      -0.154732
      5 C                    -0.289964       0.104024
      6 N                    -0.171305       0.035305
      7 H                     0.131121       0.001048
      8 H                     0.133697       0.023577
      9 H                     0.133347       0.000316
     10 H                     0.138619       0.005192
     11 H                     0.144197       0.003545
     12 C                    -0.152444       0.979257
     13 H                     0.130803      -0.022973
  --------------------------------------------------------
  Sum of atomic charges =    -0.000000

                    Cartesian Multipole Moments
 -----------------------------------------------------------------
    Charge (ESU x 10^10)
                 0.0000
    Dipole Moment (Debye)
         X      -0.8816      Y      -2.0998      Z       0.3002
       Tot       2.2971
    Quadrupole Moments (Debye-Ang)
        XX     -37.7988     XY      -4.3350     YY     -46.0939
        XZ       2.3433     YZ       1.7555     ZZ     -41.1670

 Total job time:  21.53s(wall), 12.25s(cpu)
        *  Thank you very much for using Q-Chem.  Have a nice day.  *
