 Q-Chem 5.0, Q-Chem, Inc., Pleasanton, CA (2017)
 Q-Chem 5.0.2 for Intel X86 EM64T Linux

User input:
--------------------------------------------------------------
$molecule
0 2
C        1.5231813390    0.3852152491   -0.2296862226
C        0.6819030992   -0.8596348998    0.0256880495
C       -0.6341518641   -0.5172270571   -0.7613612886
C       -1.1582784257    0.1357295985    0.5318490904
C       -0.5311857537    0.9629470399   -0.6815021873
N        0.8340653503    1.4117274717   -0.5736761075
H        2.5881664696    0.4569011848   -0.0144194970
H        1.1711694107   -1.8319472928   -0.0642671796
H       -1.1583347610   -1.1247595836   -1.4929784487
H       -2.1724186517    0.3734361427    0.8374336606
H       -1.2330611332    1.6124657011   -1.1945277586
C       -0.1138090947   -0.5393904672    1.2898503756
H        0.2027540148   -0.4654630867    2.3275975132
****
C        1.4911941874    0.4714336195   -0.2289717559
C        0.7034291338   -0.8341089461    0.0007362804
C       -0.3017785272   -0.6079099588   -1.1330174024
C       -1.0747827748    0.4502358855    0.7468664244
C       -0.6406011864    0.8079023838   -0.6838000855
N        0.7451032510    1.4316818215   -0.6157796221
H        2.5604990025    0.5914968476   -0.0631039254
H        1.2706832759   -1.7635461480    0.0529996396
H       -1.0552441733   -1.3470421114   -1.4003503834
H       -1.8679135414    0.9426776124    1.2986717610
H       -1.3268377145    1.4173575114   -1.2699622629
C       -0.2636855739   -0.5354077592    1.1640899444
H       -0.2400653590   -1.0247707584    2.1316213879
$end

$rem
method                b3lyp
basis                 6-31g(d)
unrestricted          true
symmetry              off
sym_ignore            true
incdft                false
incfock               0
scf_convergence       8
thresh                14
jobtype               fsm
scf_guess             core
scf_guess_mix         5
scf_algorithm         diis
max_scf_cycles        100
fsm_nnode             21
fsm_ngrad             6
fsm_mode              2
fsm_opt_mode          2
$end

--------------------------------------------------------------

   21    -286.8383803540      5.54E-09 Convergence criterion met
 Total energy in the final basis set = -286.83838035
   21    -286.8516507674      6.33E-09 Convergence criterion met
 Total energy in the final basis set = -286.85165077
   21    -286.8378479184      5.70E-09 Convergence criterion met
 Total energy in the final basis set = -286.83784792
   21    -286.8372542898      3.54E-09 Convergence criterion met
 Total energy in the final basis set = -286.83725429
   21    -286.8367361939      5.08E-09 Convergence criterion met
 Total energy in the final basis set = -286.83673619
   21    -286.8371874816      8.20E-09 Convergence criterion met
 Total energy in the final basis set = -286.83718748
   20    -286.8367214510      9.54E-09 Convergence criterion met
 Total energy in the final basis set = -286.83672145
   21    -286.8329099549      5.89E-09 Convergence criterion met
 Total energy in the final basis set = -286.82441572
   23    -286.8242789250      1.88E-09 Convergence criterion met
 Total energy in the final basis set = -286.82427893
   22    -286.8244222223      9.79E-09 Convergence criterion met
 Total energy in the final basis set = -286.82442222
   23    -286.8242769439      1.97E-09 Convergence criterion met
 Total energy in the final basis set = -286.82427694
   22    -286.8244533404      9.85E-09 Convergence criterion met
 Total energy in the final basis set = -286.82445334
   23    -286.8242523558      2.10E-09 Convergence criterion met
 Total energy in the final basis set = -286.82425236
   22    -286.8244687074      9.81E-09 Convergence criterion met
 Total energy in the final basis set = -286.82446871
   23    -286.8242399545      2.13E-09 Convergence criterion met
 Total energy in the final basis set = -286.82423995

                    Orbital Energies (a.u.)
 --------------------------------------------------------------

 Alpha MOs
 -- Occupied --
-14.314 -10.224 -10.218 -10.216 -10.210 -10.209 -10.194  -0.959
 -0.836  -0.738  -0.687  -0.590  -0.576  -0.537  -0.515  -0.461
 -0.433  -0.413  -0.397  -0.369  -0.345  -0.286  -0.269  -0.264
 -0.144

 Beta MOs
 -- Occupied --
-14.313 -10.224 -10.218 -10.218 -10.210 -10.201 -10.185  -0.955
 -0.828  -0.735  -0.674  -0.586  -0.566  -0.531  -0.512  -0.452
 -0.429  -0.408  -0.395  -0.364  -0.339  -0.276  -0.260  -0.252

          Ground-State Mulliken Net Atomic Charges

     Atom                 Charge (a.u.)    Spin (a.u.)
  --------------------------------------------------------
      1 C                     0.089985       0.009265
      2 C                    -0.259952      -0.068182
      3 C                    -0.123515       0.607573
      4 C                    -0.127859      -0.220275
      5 C                    -0.035322       0.000612
      6 N                    -0.336193       0.062234
      7 H                     0.142726       0.001583
      8 H                     0.139076       0.010022
      9 H                     0.158700      -0.031031
     10 H                     0.148698       0.012505
     11 H                     0.145625       0.004681
     12 C                    -0.084672       0.637683
     13 H                     0.142704      -0.026670
  --------------------------------------------------------
  Sum of atomic charges =    -0.000000

                    Cartesian Multipole Moments
 -----------------------------------------------------------------
    Charge (ESU x 10^10)
                 0.0000
    Dipole Moment (Debye)
         X      -1.0761      Y      -2.1311      Z       0.6148
       Tot       2.4653
    Quadrupole Moments (Debye-Ang)
        XX     -36.6903     XY      -3.6698     YY     -43.9934
        XZ       1.7163     YZ       1.2004     ZZ     -40.3812

             Standard Nuclear Orientation (Angstroms)
    I     Atom           X                Y                Z
 ----------------------------------------------------------------
    1      C       1.5186454494     0.4306431752    -0.2649917001
    2      C       0.7066161140    -0.8345482496     0.0236470994
    3      C      -0.4875898875    -0.5656854349    -0.9167757918
    4      C      -1.0823660239     0.3454561497     0.6498405110
    5      C      -0.5767990248     0.9009474342    -0.6818950943
    6      N       0.7955236922     1.4276000198    -0.6261323405
    7      H       2.5860639640     0.5310684568    -0.0748013032
    8      H       1.2281480620    -1.7915234230     0.0071053808
    9      H      -1.1393400006    -1.2542861643    -1.4353047767
   10      H      -2.0575646522     0.6346945230     1.0342100641
   11      H      -1.2822370536     1.5107154607    -1.2410710317
   12      C      -0.1411255860    -0.4888878279     1.2515247408
   13      H      -0.0855503362    -0.8627309772     2.2652087587
 ----------------------------------------------------------------

 Total job time:  5150.83s(wall), 5128.42s(cpu)
        *  Thank you very much for using Q-Chem.  Have a nice day.  *
