 Q-Chem 5.0, Q-Chem, Inc., Pleasanton, CA (2017)
 Q-Chem 5.0.2 for Intel X86 EM64T Linux

User input:
--------------------------------------------------------------
$molecule
0 2
C        1.4905838781    0.4711775155   -0.2292302004
C        0.7027017720   -0.8341092217    0.0002850662
C       -0.3007350927   -0.6077747574   -1.1338531143
C       -1.0746136457    0.4509684029    0.7482589630
C       -0.6415991178    0.8072959350   -0.6825858995
N        0.7443936819    1.4315185571   -0.6151779547
H        2.5600656925    0.5909836336   -0.0641922198
H        1.2696991906   -1.7635565714    0.0537405531
H       -1.0517684345   -1.3480311925   -1.4047025931
H       -1.8666043165    0.9453307314    1.3000824204
H       -1.3276382186    1.4161472669   -1.2694561774
C       -0.2641273627   -0.5357495884    1.1643775688
H       -0.2403580266   -1.0242007111    2.1324535877
$end

$rem
method                b3lyp
basis                 6-31g(d)
unrestricted          true
symmetry              off
sym_ignore            true
incdft                false
incfock               0
scf_convergence       8
thresh                14
jobtype               opt
scf_guess             core
scf_guess_mix         5
scf_algorithm         diis
max_scf_cycles        100
geom_opt_max_cycles   300
$end

--------------------------------------------------------------

   21    -286.8516486485      6.39E-09 Convergence criterion met
 Total energy in the final basis set = -286.85164865
   16    -286.8516499356      3.94E-09 Convergence criterion met
 Total energy in the final basis set = -286.85164994

             Standard Nuclear Orientation (Angstroms)
    I     Atom           X                Y                Z
 ----------------------------------------------------------------
    1      C       1.4911941874     0.4714336195    -0.2289717559
    2      C       0.7034291338    -0.8341089461     0.0007362804
    3      C      -0.3017785272    -0.6079099588    -1.1330174024
    4      C      -1.0747827748     0.4502358855     0.7468664244
    5      C      -0.6406011864     0.8079023838    -0.6838000855
    6      N       0.7451032510     1.4316818215    -0.6157796221
    7      H       2.5604990025     0.5914968476    -0.0631039254
    8      H       1.2706832759    -1.7635461480     0.0529996396
    9      H      -1.0552441733    -1.3470421114    -1.4003503834
   10      H      -1.8679135414     0.9426776124     1.2986717610
   11      H      -1.3268377145     1.4173575114    -1.2699622629
   12      C      -0.2636855739    -0.5354077592     1.1640899444
   13      H      -0.2400653590    -1.0247707584     2.1316213879
 ----------------------------------------------------------------

   16    -286.8516507571      4.00E-09 Convergence criterion met
 Total energy in the final basis set = -286.85165076
 Final energy is   -286.851650757078
 **  OPTIMIZATION CONVERGED  **

                    Orbital Energies (a.u.)
 --------------------------------------------------------------

 Alpha MOs
 -- Occupied --
-14.322 -10.224 -10.220 -10.210 -10.204 -10.201 -10.198  -0.952
 -0.821  -0.726  -0.705  -0.579  -0.573  -0.531  -0.512  -0.472
 -0.418  -0.410  -0.381  -0.373  -0.348  -0.294  -0.271  -0.258
 -0.196

 Beta MOs
 -- Occupied --
-14.321 -10.224 -10.221 -10.210 -10.200 -10.196 -10.190  -0.949
 -0.815  -0.725  -0.690  -0.577  -0.561  -0.527  -0.509  -0.463
 -0.414  -0.406  -0.380  -0.369  -0.342  -0.287  -0.261  -0.255

          Ground-State Mulliken Net Atomic Charges

     Atom                 Charge (a.u.)    Spin (a.u.)
  --------------------------------------------------------
      1 C                     0.092214      -0.008808
      2 C                    -0.246085      -0.043814
      3 C                    -0.096147       0.975538
      4 C                    -0.087963       0.040380
      5 C                    -0.094790      -0.045020
      6 N                    -0.325105       0.021748
      7 H                     0.149696      -0.000177
      8 H                     0.133886       0.002878
      9 H                     0.138807      -0.026498
     10 H                     0.146022       0.000902
     11 H                     0.139868       0.003034
     12 C                    -0.096088       0.079529
     13 H                     0.145684       0.000307
  --------------------------------------------------------
  Sum of atomic charges =    -0.000000

                    Cartesian Multipole Moments
 -----------------------------------------------------------------
    Charge (ESU x 10^10)
                -0.0000
    Dipole Moment (Debye)
         X      -0.5665      Y      -1.9424      Z       1.2459
       Tot       2.3761
    Quadrupole Moments (Debye-Ang)
        XX     -36.9449     XY      -3.3718     YY     -43.6399
        XZ       1.3233     YZ       0.7096     ZZ     -40.9003

 Total job time:  158.02s(wall), 166.48s(cpu)
        *  Thank you very much for using Q-Chem.  Have a nice day.  *
