 Q-Chem 5.0, Q-Chem, Inc., Pleasanton, CA (2017)
 Q-Chem 5.0.2 for Intel X86 EM64T Linux

User input:
--------------------------------------------------------------
$molecule
0 2
C        1.5166477864    0.4255975744   -0.2648491194
C        0.7017095658   -0.8371498404    0.0257005579
C       -0.5084704804   -0.5662721640   -0.8958874576
C       -1.0896273560    0.3318537656    0.6409572590
C       -0.5758996295    0.9040783389   -0.6799339047
N        0.7973788350    1.4246771414   -0.6267455690
H        2.5833301183    0.5262412780   -0.0707013128
H        1.2181423484   -1.7972604457    0.0069039526
H       -1.1229399370   -1.2412126151   -1.4749500565
H       -2.0610669785    0.6228294423    1.0337533074
H       -1.2815114807    1.5135992720   -1.2389360903
C       -0.1362249567   -0.4920330669    1.2555527619
H       -0.0590431185   -0.8314855379    2.2797001879
$end

$rem
method                b3lyp
basis                 6-31+g(d,p)
unrestricted          true
symmetry              off
sym_ignore            true
incdft                false
incfock               0
scf_convergence       8
thresh                14
jobtype               freq
scf_guess             read
scf_algorithm         diis
max_scf_cycles        100
$end

--------------------------------------------------------------

             Standard Nuclear Orientation (Angstroms)
    I     Atom           X                Y                Z
 ----------------------------------------------------------------
    1      C       1.5166477864     0.4255975744    -0.2648491194
    2      C       0.7017095658    -0.8371498404     0.0257005579
    3      C      -0.5084704804    -0.5662721640    -0.8958874576
    4      C      -1.0896273560     0.3318537656     0.6409572590
    5      C      -0.5758996295     0.9040783389    -0.6799339047
    6      N       0.7973788350     1.4246771414    -0.6267455690
    7      H       2.5833301183     0.5262412780    -0.0707013128
    8      H       1.2181423484    -1.7972604457     0.0069039526
    9      H      -1.1229399370    -1.2412126151    -1.4749500565
   10      H      -2.0610669785     0.6228294423     1.0337533074
   11      H      -1.2815114807     1.5135992720    -1.2389360903
   12      C      -0.1362249567    -0.4920330669     1.2555527619
   13      H      -0.0590431185    -0.8314855379     2.2797001879
 ----------------------------------------------------------------

    2    -286.8475145494      1.99E-09 Convergence criterion met
 Total energy in the final basis set = -286.84751455

                    Orbital Energies (a.u.)
 --------------------------------------------------------------

 Alpha MOs
 -- Occupied --
-14.330 -10.235 -10.230 -10.228 -10.225 -10.221 -10.207  -0.973
 -0.850  -0.750  -0.696  -0.601  -0.585  -0.547  -0.522  -0.473
 -0.444  -0.425  -0.408  -0.378  -0.356  -0.296  -0.284  -0.278
 -0.158

 Beta MOs
 -- Occupied --
-14.329 -10.235 -10.231 -10.230 -10.222 -10.217 -10.197  -0.969
 -0.842  -0.747  -0.684  -0.597  -0.577  -0.541  -0.519  -0.464
 -0.441  -0.419  -0.406  -0.373  -0.351  -0.287  -0.275  -0.265

          Ground-State Mulliken Net Atomic Charges

     Atom                 Charge (a.u.)    Spin (a.u.)
  --------------------------------------------------------
      1 C                    -0.070959      -0.001863
      2 C                     0.006533      -0.101901
      3 C                    -0.200455       0.601426
      4 C                    -0.100347      -0.237139
      5 C                    -0.135696      -0.018962
      6 N                    -0.178795       0.062452
      7 H                     0.132180       0.001595
      8 H                     0.129431       0.011057
      9 H                     0.146911      -0.025691
     10 H                     0.138960       0.010807
     11 H                     0.138640       0.004587
     12 C                    -0.144985       0.720156
     13 H                     0.138582      -0.026525
  --------------------------------------------------------
  Sum of atomic charges =    -0.000000

                    Cartesian Multipole Moments
 -----------------------------------------------------------------
    Charge (ESU x 10^10)
                -0.0000
    Dipole Moment (Debye)
         X      -1.0961      Y      -2.2687      Z       0.5427
       Tot       2.5774
    Quadrupole Moments (Debye-Ang)
        XX     -37.7311     XY      -4.3816     YY     -45.7126
        XZ       1.8456     YZ       1.3119     ZZ     -41.9467

 Frequency:      -670.60                 361.62                 396.03
 Force Cnst:      1.3780                 0.0932                 0.1073
 Red. Mass:       5.2008                 1.2096                 1.1610
 IR Intens:       37.783                 15.136                 30.716
 Frequency:       444.40                 482.29                 603.95
 Force Cnst:      0.3537                 0.5568                 0.9933
 Red. Mass:       3.0400                 4.0631                 4.6220
 IR Intens:       12.298                  8.300                 15.815
 Frequency:       741.27                 784.53                 829.62
 Force Cnst:      1.9665                 2.6255                 0.8762
 Red. Mass:       6.0742                 7.2402                 2.1608
 IR Intens:        3.295                  5.375                 16.914
 Frequency:       851.39                 884.54                 895.40
 Force Cnst:      1.9047                 0.9881                 0.7076
 Red. Mass:       4.4599                 2.1434                 1.4980
 IR Intens:       10.392                  7.895                  2.266
 Frequency:       913.85                 927.90                 957.82
 Force Cnst:      1.0095                 0.8017                 1.1265
 Red. Mass:       2.0516                 1.5803                 2.0841
 IR Intens:        0.393                 21.721                  2.353
 Frequency:       973.64                1027.12                1087.34
 Force Cnst:      1.1222                 1.2869                 1.2005
 Red. Mass:       2.0092                 2.0703                 1.7233
 IR Intens:        2.668                  3.478                  5.160
 Frequency:      1142.25                1179.01                1217.24
 Force Cnst:      1.2858                 1.4466                 1.3569
 Red. Mass:       1.6727                 1.7663                 1.5543
 IR Intens:       15.073                  1.740                  6.552
 Frequency:      1243.81                1276.39                1320.55
 Force Cnst:      1.4376                 1.2073                 1.5912
 Red. Mass:       1.5772                 1.2577                 1.5487
 IR Intens:        5.973                  1.060                  2.438
 Frequency:      1324.60                1412.54                1635.87
 Force Cnst:      1.7416                 3.2802                11.9509
 Red. Mass:       1.6848                 2.7903                 7.5797
 IR Intens:       19.941                  1.880                 44.650
 Frequency:      3138.32                3174.78                3176.04
 Force Cnst:      6.3263                 6.4768                 6.5004
 Red. Mass:       1.0902                 1.0907                 1.0938
 IR Intens:       17.588                 19.900                  9.275
 Frequency:      3185.91                3251.11                3267.00
 Force Cnst:      6.5355                 6.8242                 6.8896
 Red. Mass:       1.0929                 1.0958                 1.0956
 IR Intens:       19.564                  1.894                  0.405

 STANDARD THERMODYNAMIC QUANTITIES AT   298.15 K  AND     1.00 ATM

   This Molecule has  1 Imaginary Frequencies
   Zero point vibrational energy:       63.056 kcal/mol

   Atom    1 Element C  Has Mass   12.00000
   Atom    2 Element C  Has Mass   12.00000
   Atom    3 Element C  Has Mass   12.00000
   Atom    4 Element C  Has Mass   12.00000
   Atom    5 Element C  Has Mass   12.00000
   Atom    6 Element N  Has Mass   14.00307
   Atom    7 Element H  Has Mass    1.00783
   Atom    8 Element H  Has Mass    1.00783
   Atom    9 Element H  Has Mass    1.00783
   Atom   10 Element H  Has Mass    1.00783
   Atom   11 Element H  Has Mass    1.00783
   Atom   12 Element C  Has Mass   12.00000
   Atom   13 Element H  Has Mass    1.00783
   Molecular Mass:    92.050050 amu
   Principal axes and moments of inertia in amu*Bohr^2:
                             1           2           3
    Eigenvalues --      377.02260   456.81134   565.54456
          X               0.69504     0.71084     0.10776
          Y               0.51752    -0.59869     0.61134
          Z              -0.49909     0.36914     0.78399
   Rotational Symmetry Number is   1
   The Molecule is an Asymmetric Top
   Translational Enthalpy:        0.889 kcal/mol
   Rotational Enthalpy:           0.889 kcal/mol
   Vibrational Enthalpy:         64.379 kcal/mol
   gas constant (RT):             0.592 kcal/mol
   Translational Entropy:        39.471  cal/mol.K
   Rotational Entropy:           26.079  cal/mol.K
   Vibrational Entropy:           6.073  cal/mol.K

   Total Enthalpy:               66.748 kcal/mol
   Total Entropy:                71.623  cal/mol.K

 Total job time:  637.02s(wall), 561.66s(cpu)
        *  Thank you very much for using Q-Chem.  Have a nice day.  *
