 Q-Chem 5.0, Q-Chem, Inc., Pleasanton, CA (2017)
 Q-Chem 5.0.2 for Intel X86 EM64T Linux

User input:
--------------------------------------------------------------
$molecule
0 2
C        1.5186454494    0.4306431752   -0.2649917001
C        0.7066161140   -0.8345482496    0.0236470994
C       -0.4875898875   -0.5656854349   -0.9167757918
C       -1.0823660239    0.3454561497    0.6498405110
C       -0.5767990248    0.9009474342   -0.6818950943
N        0.7955236922    1.4276000198   -0.6261323405
H        2.5860639640    0.5310684568   -0.0748013032
H        1.2281480620   -1.7915234230    0.0071053808
H       -1.1393400006   -1.2542861643   -1.4353047767
H       -2.0575646522    0.6346945230    1.0342100641
H       -1.2822370536    1.5107154607   -1.2410710317
C       -0.1411255860   -0.4888878279    1.2515247408
H       -0.0855503362   -0.8627309772    2.2652087587
$end

$rem
method                b3lyp
basis                 6-31g(d)
unrestricted          true
symmetry              off
sym_ignore            true
incdft                false
incfock               0
scf_convergence       8
thresh                14
jobtype               sp
scf_guess             core
scf_guess_mix         5
scf_algorithm         diis
max_scf_cycles        100
$end

--------------------------------------------------------------

             Standard Nuclear Orientation (Angstroms)
    I     Atom           X                Y                Z
 ----------------------------------------------------------------
    1      C       1.5186454494     0.4306431752    -0.2649917001
    2      C       0.7066161140    -0.8345482496     0.0236470994
    3      C      -0.4875898875    -0.5656854349    -0.9167757918
    4      C      -1.0823660239     0.3454561497     0.6498405110
    5      C      -0.5767990248     0.9009474342    -0.6818950943
    6      N       0.7955236922     1.4276000198    -0.6261323405
    7      H       2.5860639640     0.5310684568    -0.0748013032
    8      H       1.2281480620    -1.7915234230     0.0071053808
    9      H      -1.1393400006    -1.2542861643    -1.4353047767
   10      H      -2.0575646522     0.6346945230     1.0342100641
   11      H      -1.2822370536     1.5107154607    -1.2410710317
   12      C      -0.1411255860    -0.4888878279     1.2515247408
   13      H      -0.0855503362    -0.8627309772     2.2652087587
 ----------------------------------------------------------------

   22    -286.8249167096      9.38E-09 Convergence criterion met
 Total energy in the final basis set = -286.82491671

                    Orbital Energies (a.u.)
 --------------------------------------------------------------

 Alpha MOs
 -- Occupied --
-14.315 -10.224 -10.218 -10.215 -10.210 -10.209 -10.194  -0.959
 -0.834  -0.738  -0.687  -0.590  -0.575  -0.537  -0.512  -0.462
 -0.432  -0.414  -0.398  -0.369  -0.345  -0.285  -0.270  -0.263
 -0.145

 Beta MOs
 -- Occupied --
-14.313 -10.223 -10.218 -10.218 -10.210 -10.199 -10.185  -0.954
 -0.827  -0.734  -0.674  -0.586  -0.566  -0.530  -0.510  -0.453
 -0.429  -0.408  -0.395  -0.364  -0.340  -0.275  -0.261  -0.251

          Ground-State Mulliken Net Atomic Charges

     Atom                 Charge (a.u.)    Spin (a.u.)
  --------------------------------------------------------
      1 C                     0.092506       0.005520
      2 C                    -0.261100      -0.068087
      3 C                    -0.126976       0.655804
      4 C                    -0.124861      -0.223961
      5 C                    -0.035299      -0.003615
      6 N                    -0.336593       0.060220
      7 H                     0.144229       0.001473
      8 H                     0.137856       0.009555
      9 H                     0.157588      -0.033837
     10 H                     0.147620       0.013232
     11 H                     0.146294       0.004458
     12 C                    -0.084240       0.603975
     13 H                     0.142977      -0.024738
  --------------------------------------------------------
  Sum of atomic charges =    -0.000000

                    Cartesian Multipole Moments
 -----------------------------------------------------------------
    Charge (ESU x 10^10)
                -0.0000
    Dipole Moment (Debye)
         X      -1.0356      Y      -2.0926      Z       0.6353
       Tot       2.4197
    Quadrupole Moments (Debye-Ang)
        XX     -36.5942     XY      -3.6709     YY     -44.0039
        XZ       1.6642     YZ       1.1174     ZZ     -40.4199

 Total job time:  68.27s(wall), 58.90s(cpu)
        *  Thank you very much for using Q-Chem.  Have a nice day.  *
