 Q-Chem 5.0, Q-Chem, Inc., Pleasanton, CA (2017)
 Q-Chem 5.0.2 for Intel X86 EM64T Linux

User input:
--------------------------------------------------------------
$molecule
0 2
C        1.5186454494    0.4306431752   -0.2649917001
C        0.7066161140   -0.8345482496    0.0236470994
C       -0.4875898875   -0.5656854349   -0.9167757918
C       -1.0823660239    0.3454561497    0.6498405110
C       -0.5767990248    0.9009474342   -0.6818950943
N        0.7955236922    1.4276000198   -0.6261323405
H        2.5860639640    0.5310684568   -0.0748013032
H        1.2281480620   -1.7915234230    0.0071053808
H       -1.1393400006   -1.2542861643   -1.4353047767
H       -2.0575646522    0.6346945230    1.0342100641
H       -1.2822370536    1.5107154607   -1.2410710317
C       -0.1411255860   -0.4888878279    1.2515247408
H       -0.0855503362   -0.8627309772    2.2652087587
$end

$rem
method                b3lyp
basis                 6-31g(d)
unrestricted          true
symmetry              off
sym_ignore            true
incdft                false
incfock               0
scf_convergence       8
thresh                14
jobtype               ts
scf_guess             read
scf_algorithm         diis
max_scf_cycles        100
geom_opt_max_cycles   500
geom_opt_dmax         100
geom_opt_tol_gradient 10
geom_opt_hessian      read
$end

--------------------------------------------------------------

    2    -286.8249167096      1.40E-09 Convergence criterion met
 Total energy in the final basis set = -286.82491671
   13    -286.8247257057      4.45E-09 Convergence criterion met
 Total energy in the final basis set = -286.82472571
   13    -286.8246031940      4.27E-09 Convergence criterion met
 Total energy in the final basis set = -286.82460319
   13    -286.8245163069      6.24E-09 Convergence criterion met
 Total energy in the final basis set = -286.82451631
   12    -286.8245006082      8.11E-09 Convergence criterion met
 Total energy in the final basis set = -286.82450061

             Standard Nuclear Orientation (Angstroms)
    I     Atom           X                Y                Z
 ----------------------------------------------------------------
    1      C       1.5166477864     0.4255975744    -0.2648491194
    2      C       0.7017095658    -0.8371498404     0.0257005579
    3      C      -0.5084704804    -0.5662721640    -0.8958874576
    4      C      -1.0896273560     0.3318537656     0.6409572590
    5      C      -0.5758996295     0.9040783389    -0.6799339047
    6      N       0.7973788350     1.4246771414    -0.6267455690
    7      H       2.5833301183     0.5262412780    -0.0707013128
    8      H       1.2181423484    -1.7972604457     0.0069039526
    9      H      -1.1229399370    -1.2412126151    -1.4749500565
   10      H      -2.0610669785     0.6228294423     1.0337533074
   11      H      -1.2815114807     1.5135992720    -1.2389360903
   12      C      -0.1362249567    -0.4920330669     1.2555527619
   13      H      -0.0590431185    -0.8314855379     2.2797001879
 ----------------------------------------------------------------

   10    -286.8245009665      6.80E-09 Convergence criterion met
 Total energy in the final basis set = -286.82450097
 Final energy is   -286.824500966507
 **  OPTIMIZATION CONVERGED  **

                    Orbital Energies (a.u.)
 --------------------------------------------------------------

 Alpha MOs
 -- Occupied --
-14.314 -10.224 -10.218 -10.216 -10.212 -10.209 -10.193  -0.959
 -0.836  -0.739  -0.685  -0.590  -0.575  -0.538  -0.513  -0.461
 -0.432  -0.414  -0.398  -0.367  -0.345  -0.284  -0.271  -0.264
 -0.145

 Beta MOs
 -- Occupied --
-14.313 -10.224 -10.219 -10.218 -10.210 -10.204 -10.184  -0.955
 -0.828  -0.735  -0.673  -0.586  -0.566  -0.531  -0.510  -0.453
 -0.429  -0.408  -0.396  -0.362  -0.340  -0.274  -0.261  -0.251

          Ground-State Mulliken Net Atomic Charges

     Atom                 Charge (a.u.)    Spin (a.u.)
  --------------------------------------------------------
      1 C                     0.091782       0.008713
      2 C                    -0.258996      -0.069153
      3 C                    -0.127979       0.571368
      4 C                    -0.132218      -0.216473
      5 C                    -0.028567       0.004258
      6 N                    -0.338699       0.064175
      7 H                     0.143615       0.001578
      8 H                     0.137634       0.010558
      9 H                     0.158488      -0.027917
     10 H                     0.147985       0.011895
     11 H                     0.146675       0.004296
     12 C                    -0.081660       0.663430
     13 H                     0.141940      -0.026729
  --------------------------------------------------------
  Sum of atomic charges =    -0.000000

                    Cartesian Multipole Moments
 -----------------------------------------------------------------
    Charge (ESU x 10^10)
                 0.0000
    Dipole Moment (Debye)
         X      -1.0287      Y      -2.0826      Z       0.5302
       Tot       2.3825
    Quadrupole Moments (Debye-Ang)
        XX     -36.7455     XY      -3.7397     YY     -44.0835
        XZ       1.7053     YZ       1.3032     ZZ     -40.1454

 Total job time:  235.36s(wall), 219.20s(cpu)
        *  Thank you very much for using Q-Chem.  Have a nice day.  *
