 Q-Chem 5.0, Q-Chem, Inc., Pleasanton, CA (2017)
 Q-Chem 5.0.2 for Intel X86 EM64T Linux

User input:
--------------------------------------------------------------
$molecule
0 2
C        1.5166477864    0.4255975744   -0.2648491194
C        0.7017095658   -0.8371498404    0.0257005579
C       -0.5084704804   -0.5662721640   -0.8958874576
C       -1.0896273560    0.3318537656    0.6409572590
C       -0.5758996295    0.9040783389   -0.6799339047
N        0.7973788350    1.4246771414   -0.6267455690
H        2.5833301183    0.5262412780   -0.0707013128
H        1.2181423484   -1.7972604457    0.0069039526
H       -1.1229399370   -1.2412126151   -1.4749500565
H       -2.0610669785    0.6228294423    1.0337533074
H       -1.2815114807    1.5135992720   -1.2389360903
C       -0.1362249567   -0.4920330669    1.2555527619
H       -0.0590431185   -0.8314855379    2.2797001879
$end

$rem
method                b3lyp
basis                 6-31+g(d,p)
unrestricted          true
symmetry              off
sym_ignore            true
incdft                false
incfock               0
scf_convergence       8
thresh                14
jobtype               ts
scf_guess             read
scf_algorithm         diis
max_scf_cycles        100
geom_opt_max_cycles   500
geom_opt_dmax         100
geom_opt_tol_gradient 10
geom_opt_hessian      read
$end

--------------------------------------------------------------

    2    -286.8475145495      9.32E-10 Convergence criterion met
 Total energy in the final basis set = -286.84751455
   13    -286.8475500768      3.32E-09 Convergence criterion met
 Total energy in the final basis set = -286.84755008
   12    -286.8475538381      6.65E-09 Convergence criterion met
 Total energy in the final basis set = -286.84755384

             Standard Nuclear Orientation (Angstroms)
    I     Atom           X                Y                Z
 ----------------------------------------------------------------
    1      C       1.5200175892     0.4258871807    -0.2674924398
    2      C       0.7040930143    -0.8341237823     0.0296178461
    3      C      -0.5138236743    -0.5670896138    -0.8863604372
    4      C      -1.0883740671     0.3373673747     0.6435784656
    5      C      -0.5773086353     0.9042937100    -0.6816083330
    6      N       0.7962936072     1.4221318695    -0.6341577794
    7      H       2.5865037431     0.5278563325    -0.0783760758
    8      H       1.2199154053    -1.7936748067     0.0137148123
    9      H      -1.1173050561    -1.2399639544    -1.4794878908
   10      H      -2.0597768039     0.6259645248     1.0355800294
   11      H      -1.2838303159     1.5117441765    -1.2396797539
   12      C      -0.1305996837    -0.4835585560     1.2605151976
   13      H      -0.0733804064    -0.8533713129     2.2747208754
 ----------------------------------------------------------------

    9    -286.8475538750      5.72E-09 Convergence criterion met
 Total energy in the final basis set = -286.84755387
 Final energy is   -286.847553874987
 **  OPTIMIZATION CONVERGED  **

                    Orbital Energies (a.u.)
 --------------------------------------------------------------

 Alpha MOs
 -- Occupied --
-14.330 -10.235 -10.230 -10.229 -10.226 -10.221 -10.206  -0.972
 -0.849  -0.751  -0.696  -0.601  -0.585  -0.548  -0.522  -0.472
 -0.444  -0.424  -0.409  -0.378  -0.356  -0.296  -0.284  -0.277
 -0.157

 Beta MOs
 -- Occupied --
-14.329 -10.235 -10.231 -10.230 -10.222 -10.217 -10.197  -0.968
 -0.841  -0.747  -0.684  -0.597  -0.577  -0.541  -0.519  -0.463
 -0.441  -0.419  -0.406  -0.373  -0.351  -0.287  -0.275  -0.265

          Ground-State Mulliken Net Atomic Charges

     Atom                 Charge (a.u.)    Spin (a.u.)
  --------------------------------------------------------
      1 C                    -0.069824      -0.002334
      2 C                     0.001284      -0.101934
      3 C                    -0.199883       0.596098
      4 C                    -0.102934      -0.234133
      5 C                    -0.133545      -0.020980
      6 N                    -0.179468       0.062400
      7 H                     0.132699       0.001550
      8 H                     0.129148       0.010609
      9 H                     0.145967      -0.024522
     10 H                     0.139210       0.010355
     11 H                     0.138901       0.004347
     12 C                    -0.140592       0.727180
     13 H                     0.139037      -0.028636
  --------------------------------------------------------
  Sum of atomic charges =     0.000000

                    Cartesian Multipole Moments
 -----------------------------------------------------------------
    Charge (ESU x 10^10)
                 0.0000
    Dipole Moment (Debye)
         X      -1.1094      Y      -2.2919      Z       0.5224
       Tot       2.5993
    Quadrupole Moments (Debye-Ang)
        XX     -37.6965     XY      -4.3932     YY     -45.6757
        XZ       1.7818     YZ       1.2673     ZZ     -41.9839

 Total job time:  151.95s(wall), 261.32s(cpu)
        *  Thank you very much for using Q-Chem.  Have a nice day.  *
