 Q-Chem 5.0, Q-Chem, Inc., Pleasanton, CA (2017)
 Q-Chem 5.0.2 for Intel X86 EM64T Linux

User input:
--------------------------------------------------------------
$molecule
0 2
C        1.5200175892    0.4258871807   -0.2674924398
C        0.7040930143   -0.8341237823    0.0296178461
C       -0.5138236743   -0.5670896138   -0.8863604372
C       -1.0883740671    0.3373673747    0.6435784656
C       -0.5773086353    0.9042937100   -0.6816083330
N        0.7962936072    1.4221318695   -0.6341577794
H        2.5865037431    0.5278563325   -0.0783760758
H        1.2199154053   -1.7936748067    0.0137148123
H       -1.1173050561   -1.2399639544   -1.4794878908
H       -2.0597768039    0.6259645248    1.0355800294
H       -1.2838303159    1.5117441765   -1.2396797539
C       -0.1305996837   -0.4835585560    1.2605151976
H       -0.0733804064   -0.8533713129    2.2747208754
$end

$rem
method                b3lyp
basis                 6-31+g(d,p)
unrestricted          true
symmetry              off
sym_ignore            true
incdft                false
incfock               0
scf_convergence       8
thresh                14
jobtype               freq
scf_guess             read
scf_algorithm         diis
max_scf_cycles        100
$end

--------------------------------------------------------------

             Standard Nuclear Orientation (Angstroms)
    I     Atom           X                Y                Z
 ----------------------------------------------------------------
    1      C       1.5200175892     0.4258871807    -0.2674924398
    2      C       0.7040930143    -0.8341237823     0.0296178461
    3      C      -0.5138236743    -0.5670896138    -0.8863604372
    4      C      -1.0883740671     0.3373673747     0.6435784656
    5      C      -0.5773086353     0.9042937100    -0.6816083330
    6      N       0.7962936072     1.4221318695    -0.6341577794
    7      H       2.5865037431     0.5278563325    -0.0783760758
    8      H       1.2199154053    -1.7936748067     0.0137148123
    9      H      -1.1173050561    -1.2399639544    -1.4794878908
   10      H      -2.0597768039     0.6259645248     1.0355800294
   11      H      -1.2838303159     1.5117441765    -1.2396797539
   12      C      -0.1305996837    -0.4835585560     1.2605151976
   13      H      -0.0733804064    -0.8533713129     2.2747208754
 ----------------------------------------------------------------

    2    -286.8475538750      5.20E-10 Convergence criterion met
 Total energy in the final basis set = -286.84755387

                    Orbital Energies (a.u.)
 --------------------------------------------------------------

 Alpha MOs
 -- Occupied --
-14.330 -10.235 -10.230 -10.229 -10.226 -10.221 -10.206  -0.972
 -0.849  -0.751  -0.696  -0.601  -0.585  -0.548  -0.522  -0.472
 -0.444  -0.424  -0.409  -0.378  -0.356  -0.296  -0.284  -0.277
 -0.157

 Beta MOs
 -- Occupied --
-14.329 -10.235 -10.231 -10.230 -10.222 -10.217 -10.197  -0.968
 -0.841  -0.747  -0.684  -0.597  -0.577  -0.541  -0.519  -0.463
 -0.441  -0.419  -0.406  -0.373  -0.351  -0.287  -0.275  -0.265

          Ground-State Mulliken Net Atomic Charges

     Atom                 Charge (a.u.)    Spin (a.u.)
  --------------------------------------------------------
      1 C                    -0.069824      -0.002333
      2 C                     0.001284      -0.101934
      3 C                    -0.199883       0.596101
      4 C                    -0.102934      -0.234136
      5 C                    -0.133545      -0.020980
      6 N                    -0.179468       0.062399
      7 H                     0.132699       0.001550
      8 H                     0.129148       0.010609
      9 H                     0.145967      -0.024522
     10 H                     0.139210       0.010355
     11 H                     0.138901       0.004347
     12 C                    -0.140592       0.727181
     13 H                     0.139037      -0.028636
  --------------------------------------------------------
  Sum of atomic charges =     0.000000

                    Cartesian Multipole Moments
 -----------------------------------------------------------------
    Charge (ESU x 10^10)
                 0.0000
    Dipole Moment (Debye)
         X      -1.1094      Y      -2.2919      Z       0.5224
       Tot       2.5993
    Quadrupole Moments (Debye-Ang)
        XX     -37.6965     XY      -4.3932     YY     -45.6757
        XZ       1.7818     YZ       1.2673     ZZ     -41.9839

 Frequency:      -659.60                 331.45                 391.71
 Force Cnst:      1.3915                 0.0757                 0.1024
 Red. Mass:       5.4284                 1.1697                 1.1329
 IR Intens:       34.800                 21.748                 29.679
 Frequency:       439.32                 483.57                 605.98
 Force Cnst:      0.4191                 0.5309                 0.9956
 Red. Mass:       3.6855                 3.8535                 4.6019
 IR Intens:        6.490                  6.443                 15.014
 Frequency:       741.13                 784.92                 825.71
 Force Cnst:      1.9364                 2.5688                 0.8639
 Red. Mass:       5.9835                 7.0768                 2.1505
 IR Intens:        3.491                  5.273                 16.192
 Frequency:       851.63                 883.25                 893.07
 Force Cnst:      1.8532                 0.9508                 0.7087
 Red. Mass:       4.3367                 2.0686                 1.5082
 IR Intens:       10.095                  8.850                  2.653
 Frequency:       913.77                 924.82                 957.31
 Force Cnst:      0.9900                 0.8223                 1.1302
 Red. Mass:       2.0124                 1.6317                 2.0932
 IR Intens:        1.099                 20.469                  2.402
 Frequency:       972.84                1026.42                1084.39
 Force Cnst:      1.1063                 1.2820                 1.2068
 Red. Mass:       1.9840                 2.0653                 1.7419
 IR Intens:        2.582                  3.810                  5.297
 Frequency:      1139.05                1176.23                1215.99
 Force Cnst:      1.2876                 1.4630                 1.3459
 Red. Mass:       1.6844                 1.7948                 1.5450
 IR Intens:       15.227                  1.853                  6.314
 Frequency:      1241.54                1273.16                1318.46
 Force Cnst:      1.4397                 1.1989                 1.5794
 Red. Mass:       1.5852                 1.2554                 1.5421
 IR Intens:        6.266                  0.922                  3.817
 Frequency:      1322.73                1405.97                1627.85
 Force Cnst:      1.7815                 3.1763                11.7389
 Red. Mass:       1.7282                 2.7272                 7.5188
 IR Intens:       18.675                  1.722                 44.349
 Frequency:      3146.21                3184.60                3185.82
 Force Cnst:      6.3582                 6.5194                 6.5380
 Red. Mass:       1.0902                 1.0911                 1.0933
 IR Intens:       17.887                 20.326                  7.016
 Frequency:      3195.58                3259.14                3264.72
 Force Cnst:      6.5749                 6.8529                 6.8853
 Red. Mass:       1.0928                 1.0950                 1.0964
 IR Intens:       18.920                  1.132                  0.541

 STANDARD THERMODYNAMIC QUANTITIES AT   298.15 K  AND     1.00 ATM

   This Molecule has  1 Imaginary Frequencies
   Zero point vibrational energy:       62.999 kcal/mol

   Atom    1 Element C  Has Mass   12.00000
   Atom    2 Element C  Has Mass   12.00000
   Atom    3 Element C  Has Mass   12.00000
   Atom    4 Element C  Has Mass   12.00000
   Atom    5 Element C  Has Mass   12.00000
   Atom    6 Element N  Has Mass   14.00307
   Atom    7 Element H  Has Mass    1.00783
   Atom    8 Element H  Has Mass    1.00783
   Atom    9 Element H  Has Mass    1.00783
   Atom   10 Element H  Has Mass    1.00783
   Atom   11 Element H  Has Mass    1.00783
   Atom   12 Element C  Has Mass   12.00000
   Atom   13 Element H  Has Mass    1.00783
   Molecular Mass:    92.050050 amu
   Principal axes and moments of inertia in amu*Bohr^2:
                             1           2           3
    Eigenvalues --      377.07307   456.61812   566.54129
          X               0.69646     0.70929     0.10884
          Y               0.51306    -0.59823     0.61553
          Z              -0.50170     0.37286     0.78056
   Rotational Symmetry Number is   1
   The Molecule is an Asymmetric Top
   Translational Enthalpy:        0.889 kcal/mol
   Rotational Enthalpy:           0.889 kcal/mol
   Vibrational Enthalpy:         64.350 kcal/mol
   gas constant (RT):             0.592 kcal/mol
   Translational Entropy:        39.471  cal/mol.K
   Rotational Entropy:           26.081  cal/mol.K
   Vibrational Entropy:           6.247  cal/mol.K

   Total Enthalpy:               66.719 kcal/mol
   Total Entropy:                71.799  cal/mol.K

 Total job time:  632.18s(wall), 562.52s(cpu)
        *  Thank you very much for using Q-Chem.  Have a nice day.  *
