 Q-Chem 5.0, Q-Chem, Inc., Pleasanton, CA (2017)
 Q-Chem 5.0.2 for Intel X86 EM64T Linux

User input:
--------------------------------------------------------------
$molecule
0 2
C        1.5186454494    0.4306431752   -0.2649917001
C        0.7066161140   -0.8345482496    0.0236470994
C       -0.4875898875   -0.5656854349   -0.9167757918
C       -1.0823660239    0.3454561497    0.6498405110
C       -0.5767990248    0.9009474342   -0.6818950943
N        0.7955236922    1.4276000198   -0.6261323405
H        2.5860639640    0.5310684568   -0.0748013032
H        1.2281480620   -1.7915234230    0.0071053808
H       -1.1393400006   -1.2542861643   -1.4353047767
H       -2.0575646522    0.6346945230    1.0342100641
H       -1.2822370536    1.5107154607   -1.2410710317
C       -0.1411255860   -0.4888878279    1.2515247408
H       -0.0855503362   -0.8627309772    2.2652087587
$end

$rem
method                b3lyp
basis                 6-31g(d)
unrestricted          true
symmetry              off
sym_ignore            true
incdft                false
incfock               0
scf_convergence       8
thresh                14
jobtype               freq
scf_guess             read
scf_algorithm         diis
max_scf_cycles        100
$end

--------------------------------------------------------------

             Standard Nuclear Orientation (Angstroms)
    I     Atom           X                Y                Z
 ----------------------------------------------------------------
    1      C       1.5186454494     0.4306431752    -0.2649917001
    2      C       0.7066161140    -0.8345482496     0.0236470994
    3      C      -0.4875898875    -0.5656854349    -0.9167757918
    4      C      -1.0823660239     0.3454561497     0.6498405110
    5      C      -0.5767990248     0.9009474342    -0.6818950943
    6      N       0.7955236922     1.4276000198    -0.6261323405
    7      H       2.5860639640     0.5310684568    -0.0748013032
    8      H       1.2281480620    -1.7915234230     0.0071053808
    9      H      -1.1393400006    -1.2542861643    -1.4353047767
   10      H      -2.0575646522     0.6346945230     1.0342100641
   11      H      -1.2822370536     1.5107154607    -1.2410710317
   12      C      -0.1411255860    -0.4888878279     1.2515247408
   13      H      -0.0855503362    -0.8627309772     2.2652087587
 ----------------------------------------------------------------

    2    -286.8249167096      3.38E-09 Convergence criterion met
 Total energy in the final basis set = -286.82491671

                    Orbital Energies (a.u.)
 --------------------------------------------------------------

 Alpha MOs
 -- Occupied --
-14.315 -10.224 -10.218 -10.215 -10.210 -10.209 -10.194  -0.959
 -0.834  -0.738  -0.687  -0.590  -0.575  -0.537  -0.512  -0.462
 -0.432  -0.414  -0.398  -0.369  -0.345  -0.285  -0.270  -0.263
 -0.145

 Beta MOs
 -- Occupied --
-14.313 -10.223 -10.218 -10.218 -10.210 -10.199 -10.185  -0.954
 -0.827  -0.734  -0.674  -0.586  -0.566  -0.530  -0.510  -0.453
 -0.429  -0.408  -0.395  -0.364  -0.340  -0.275  -0.261  -0.251

          Ground-State Mulliken Net Atomic Charges

     Atom                 Charge (a.u.)    Spin (a.u.)
  --------------------------------------------------------
      1 C                     0.092506       0.005509
      2 C                    -0.261100      -0.068084
      3 C                    -0.126976       0.655804
      4 C                    -0.124861      -0.223958
      5 C                    -0.035299      -0.003617
      6 N                    -0.336593       0.060230
      7 H                     0.144229       0.001474
      8 H                     0.137856       0.009555
      9 H                     0.157588      -0.033837
     10 H                     0.147620       0.013231
     11 H                     0.146294       0.004459
     12 C                    -0.084240       0.603972
     13 H                     0.142977      -0.024738
  --------------------------------------------------------
  Sum of atomic charges =    -0.000000

                    Cartesian Multipole Moments
 -----------------------------------------------------------------
    Charge (ESU x 10^10)
                -0.0000
    Dipole Moment (Debye)
         X      -1.0356      Y      -2.0926      Z       0.6353
       Tot       2.4197
    Quadrupole Moments (Debye-Ang)
        XX     -36.5942     XY      -3.6709     YY     -44.0039
        XZ       1.6642     YZ       1.1174     ZZ     -40.4199

 Frequency:      -727.49                 294.32                 400.20
 Force Cnst:      1.5185                 0.0560                 0.1219
 Red. Mass:       4.8698                 1.0966                 1.2916
 IR Intens:       46.467                 17.689                 13.636
 Frequency:       454.27                 481.23                 600.87
 Force Cnst:      0.2834                 0.8697                 1.0062
 Red. Mass:       2.3306                 6.3739                 4.7304
 IR Intens:       12.364                  5.463                 11.327
 Frequency:       741.71                 785.84                 831.46
 Force Cnst:      2.0191                 2.7141                 0.8585
 Red. Mass:       6.2293                 7.4596                 2.1078
 IR Intens:        3.471                  5.661                 12.668
 Frequency:       852.07                 885.40                 895.53
 Force Cnst:      1.7209                 0.7704                 0.9037
 Red. Mass:       4.0231                 1.6679                 1.9126
 IR Intens:       11.966                  7.804                  2.697
 Frequency:       913.77                 926.42                 957.47
 Force Cnst:      1.0722                 0.8260                 1.1310
 Red. Mass:       2.1795                 1.6334                 2.0940
 IR Intens:        0.501                 15.984                  1.819
 Frequency:       974.50                1028.01                1094.70
 Force Cnst:      1.1602                 1.2837                 1.1618
 Red. Mass:       2.0735                 2.0617                 1.6455
 IR Intens:        2.481                  2.064                  2.297
 Frequency:      1155.57                1188.18                1221.38
 Force Cnst:      1.2926                 1.4529                 1.3920
 Red. Mass:       1.6430                 1.7467                 1.5838
 IR Intens:       12.976                  1.888                  8.275
 Frequency:      1254.05                1284.35                1326.53
 Force Cnst:      1.4675                 1.2185                 1.6609
 Red. Mass:       1.5838                 1.2537                 1.6020
 IR Intens:        5.376                  1.014                  0.341
 Frequency:      1332.52                1432.07                1640.29
 Force Cnst:      1.6793                 3.4966                11.6981
 Red. Mass:       1.6052                 2.8938                 7.3795
 IR Intens:       19.864                  0.894                 32.946
 Frequency:      3152.70                3184.67                3186.78
 Force Cnst:      6.3827                 6.5121                 6.5475
 Red. Mass:       1.0899                 1.0898                 1.0943
 IR Intens:       19.496                 17.674                 24.430
 Frequency:      3196.87                3258.89                3279.19
 Force Cnst:      6.5789                 6.8571                 6.9388
 Red. Mass:       1.0926                 1.0958                 1.0952
 IR Intens:       22.164                  2.153                  0.493

 STANDARD THERMODYNAMIC QUANTITIES AT   298.15 K  AND     1.00 ATM

   This Molecule has  1 Imaginary Frequencies
   Zero point vibrational energy:       63.204 kcal/mol

   Atom    1 Element C  Has Mass   12.00000
   Atom    2 Element C  Has Mass   12.00000
   Atom    3 Element C  Has Mass   12.00000
   Atom    4 Element C  Has Mass   12.00000
   Atom    5 Element C  Has Mass   12.00000
   Atom    6 Element N  Has Mass   14.00307
   Atom    7 Element H  Has Mass    1.00783
   Atom    8 Element H  Has Mass    1.00783
   Atom    9 Element H  Has Mass    1.00783
   Atom   10 Element H  Has Mass    1.00783
   Atom   11 Element H  Has Mass    1.00783
   Atom   12 Element C  Has Mass   12.00000
   Atom   13 Element H  Has Mass    1.00783
   Molecular Mass:    92.050050 amu
   Principal axes and moments of inertia in amu*Bohr^2:
                             1           2           3
    Eigenvalues --      378.03851   457.67028   564.28479
          X               0.69350     0.71064     0.11855
          Y               0.51477    -0.60388     0.60856
          Z              -0.50405     0.36101     0.78460
   Rotational Symmetry Number is   1
   The Molecule is an Asymmetric Top
   Translational Enthalpy:        0.889 kcal/mol
   Rotational Enthalpy:           0.889 kcal/mol
   Vibrational Enthalpy:         64.566 kcal/mol
   gas constant (RT):             0.592 kcal/mol
   Translational Entropy:        39.471  cal/mol.K
   Rotational Entropy:           26.082  cal/mol.K
   Vibrational Entropy:           6.354  cal/mol.K

   Total Enthalpy:               66.936 kcal/mol
   Total Entropy:                71.906  cal/mol.K

 Total job time:  294.84s(wall), 260.95s(cpu)
        *  Thank you very much for using Q-Chem.  Have a nice day.  *
