 Q-Chem 5.0, Q-Chem, Inc., Pleasanton, CA (2017)
 Q-Chem 5.0.2 for Intel X86 EM64T Linux

User input:
--------------------------------------------------------------
$molecule
0 2
C        1.6719244309    0.3314353752   -0.3263684253
C        1.0804919964   -0.8827368240   -0.3028906952
C       -0.3507527566   -1.0539018818   -0.0009283164
C       -1.1374459891    0.3655191548    0.1144997171
C       -0.2933788800    1.5329140741   -0.2044643278
N        0.9893830334    1.5494008637   -0.3207906216
H        2.7422075806    0.4208289926   -0.4904210088
H        1.6607263676   -1.7761400108   -0.5208781112
H       -0.8552749409   -1.9042885573   -0.4636294966
H       -2.1694564504    0.4405403106   -0.2337430022
H       -0.8217658915    2.4674880809   -0.4096236625
C       -0.8881700118   -0.5252253247    1.2509821520
H       -1.6284884889   -0.9658342528    1.9082557988
$end

$rem
method                b3lyp
basis                 6-31g(d)
unrestricted          true
symmetry              off
sym_ignore            true
incdft                false
incfock               0
scf_convergence       8
thresh                14
jobtype               opt
scf_guess             read
scf_algorithm         diis
max_scf_cycles        100
geom_opt_tol_gradient 600
geom_opt_tol_displacement 2400
geom_opt_tol_energy   200
geom_opt_max_cycles   100
$end

--------------------------------------------------------------

    2    -286.8549634740      1.74E-09 Convergence criterion met
 Total energy in the final basis set = -286.85496347
   10    -286.8549693703      8.74E-09 Convergence criterion met
 Total energy in the final basis set = -286.85496937

             Standard Nuclear Orientation (Angstroms)
    I     Atom           X                Y                Z
 ----------------------------------------------------------------
    1      C       1.6725856793     0.3310393893    -0.3233353745
    2      C       1.0793986849    -0.8827753813    -0.3051457241
    3      C      -0.3518280029    -1.0535352301    -0.0035205387
    4      C      -1.1387879583     0.3664867803     0.1149378626
    5      C      -0.2940150425     1.5324821929    -0.2057218346
    6      N       0.9887667124     1.5479455236    -0.3220122789
    7      H       2.7443720425     0.4218225726    -0.4801229922
    8      H       1.6585741567    -1.7760622371    -0.5258162319
    9      H      -0.8558955408    -1.9047931754    -0.4648741973
   10      H      -2.1724240792     0.4420194166    -0.2285029642
   11      H      -0.8219952148     2.4657762300    -0.4162823912
   12      C      -0.8856585076    -0.5249054802     1.2500795153
   13      H      -1.6230929301    -0.9655006006     1.9103171498
 ----------------------------------------------------------------

   10    -286.8549709243      7.82E-09 Convergence criterion met
 Total energy in the final basis set = -286.85497092
 Final energy is   -286.854970924261
 **  OPTIMIZATION CONVERGED  **

                    Orbital Energies (a.u.)
 --------------------------------------------------------------

 Alpha MOs
 -- Occupied --
-14.323 -10.230 -10.224 -10.221 -10.219 -10.206 -10.195  -0.934
 -0.868  -0.765  -0.667  -0.641  -0.570  -0.532  -0.491  -0.482
 -0.451  -0.425  -0.376  -0.373  -0.359  -0.301  -0.256  -0.229
 -0.219

 Beta MOs
 -- Occupied --
-14.323 -10.229 -10.224 -10.221 -10.207 -10.205 -10.194  -0.933
 -0.858  -0.763  -0.659  -0.639  -0.556  -0.527  -0.488  -0.473
 -0.447  -0.422  -0.375  -0.371  -0.351  -0.291  -0.250  -0.225

          Ground-State Mulliken Net Atomic Charges

     Atom                 Charge (a.u.)    Spin (a.u.)
  --------------------------------------------------------
      1 C                    -0.009340      -0.014738
      2 C                    -0.083986       0.041111
      3 C                    -0.175651      -0.016546
      4 C                    -0.194521      -0.016871
      5 C                     0.088820       0.019127
      6 N                    -0.391456       0.002557
      7 H                     0.136841       0.000775
      8 H                     0.139610       0.003610
      9 H                     0.155091       0.016923
     10 H                     0.155383       0.022535
     11 H                     0.142808       0.005873
     12 C                    -0.121367       0.958684
     13 H                     0.157767      -0.023041
  --------------------------------------------------------
  Sum of atomic charges =     0.000000

                    Cartesian Multipole Moments
 -----------------------------------------------------------------
    Charge (ESU x 10^10)
                 0.0000
    Dipole Moment (Debye)
         X      -2.0134      Y      -1.9855      Z      -0.0845
       Tot       2.8290
    Quadrupole Moments (Debye-Ang)
        XX     -37.2508     XY      -3.0923     YY     -41.3410
        XZ      -0.6310     YZ       0.5098     ZZ     -42.3113

 Total job time:  77.54s(wall), 85.57s(cpu)
        *  Thank you very much for using Q-Chem.  Have a nice day.  *
