 Q-Chem 5.0, Q-Chem, Inc., Pleasanton, CA (2017)
 Q-Chem 5.0.2 for Intel X86 EM64T Linux

User input:
--------------------------------------------------------------
$molecule
0 2
C        1.4574705674    0.1411748186   -1.0771187627
C        0.2558806102   -1.0119316388    0.7708051641
C       -1.0078192060   -0.9635822315    1.3198171142
C       -1.7465578230    0.0259634168    0.6044047210
C       -0.9059870263    0.5600267652   -0.3486451192
N        0.3180370875   -0.0792072147   -0.2472598099
H        1.8525255117   -0.7569400703   -1.5510343311
H        1.1255134192   -1.5958057581    1.0344822689
H       -1.3614101500   -1.5703305746    2.1419388181
H       -2.7819766513    0.2978225131    0.7565764910
H       -1.0744309166    1.2990093789   -1.1173139250
C        2.0024800555    1.3225385380   -1.2806857526
H        1.8824903318    2.3504040034   -0.9702170005
$end

$rem
method                b3lyp
basis                 6-31+g(d,p)
unrestricted          true
symmetry              off
sym_ignore            true
incdft                false
incfock               0
scf_convergence       8
thresh                14
jobtype               opt
scf_guess             read
scf_algorithm         diis
max_scf_cycles        100
geom_opt_max_cycles   300
$end

--------------------------------------------------------------

   20    -286.8912811722      8.21E-09 Convergence criterion met
 Total energy in the final basis set = -286.89128117
   13    -286.8922769640      8.75E-09 Convergence criterion met
 Total energy in the final basis set = -286.89227696
   13    -286.8932000807      8.55E-09 Convergence criterion met
 Total energy in the final basis set = -286.89320008
   13    -286.8939786539      9.91E-09 Convergence criterion met
 Total energy in the final basis set = -286.89397865
   14    -286.8945880331      4.29E-09 Convergence criterion met
 Total energy in the final basis set = -286.89458803
   14    -286.8949773972      6.53E-09 Convergence criterion met
 Total energy in the final basis set = -286.89497740
   14    -286.8951245749      8.26E-09 Convergence criterion met
 Total energy in the final basis set = -286.89512457
   12    -286.8951634762      5.05E-09 Convergence criterion met
 Total energy in the final basis set = -286.89516348
   13    -286.8951962786      3.63E-09 Convergence criterion met
 Total energy in the final basis set = -286.89519628
   11    -286.8951991941      9.08E-09 Convergence criterion met
 Total energy in the final basis set = -286.89519919
   10    -286.8952002735      8.48E-09 Convergence criterion met
 Total energy in the final basis set = -286.89520027

             Standard Nuclear Orientation (Angstroms)
    I     Atom           X                Y                Z
 ----------------------------------------------------------------
    1      C       1.5732723916     0.2322854709    -0.8288845592
    2      C       0.1783297312    -1.1638121580     0.6576247360
    3      C      -1.0929401751    -1.1063826368     1.1776836035
    4      C      -1.6982305722     0.0926908705     0.6870627755
    5      C      -0.7755407615     0.7249097099    -0.1143815970
    6      N       0.3759986670    -0.0425558883    -0.1347450803
    7      H       2.3304568136    -0.5349474427    -0.6744774255
    8      H       0.9636128449    -1.8959551884     0.7762691690
    9      H      -1.5413637735    -1.8384975814     1.8344218839
   10      H      -2.6969975431     0.4481433207     0.8992730286
   11      H      -0.8348584466     1.6483445482    -0.6694010610
   12      C       1.8342134477     1.2723827073    -1.5961901502
   13      H       1.4002631859     2.1825362140    -1.9785054470
 ----------------------------------------------------------------

   10    -286.8952006691      8.63E-09 Convergence criterion met
 Total energy in the final basis set = -286.89520067
 Final energy is   -286.895200669098
 **  OPTIMIZATION CONVERGED  **

                    Orbital Energies (a.u.)
 --------------------------------------------------------------

 Alpha MOs
 -- Occupied --
-14.408 -10.253 -10.228 -10.220 -10.217 -10.186 -10.185  -1.003
 -0.830  -0.749  -0.734  -0.629  -0.585  -0.557  -0.543  -0.469
 -0.447  -0.437  -0.426  -0.397  -0.387  -0.317  -0.265  -0.239
 -0.226

 Beta MOs
 -- Occupied --
-14.406 -10.255 -10.219 -10.217 -10.212 -10.187 -10.185  -1.000
 -0.824  -0.738  -0.730  -0.616  -0.582  -0.555  -0.534  -0.462
 -0.443  -0.437  -0.423  -0.395  -0.387  -0.313  -0.231  -0.226

          Ground-State Mulliken Net Atomic Charges

     Atom                 Charge (a.u.)    Spin (a.u.)
  --------------------------------------------------------
      1 C                    -0.039351      -0.139026
      2 C                    -0.213118       0.021745
      3 C                    -0.077254      -0.020864
      4 C                    -0.143247       0.034302
      5 C                    -0.202587      -0.036395
      6 N                     0.015871       0.036768
      7 H                     0.142326       0.038385
      8 H                     0.133689       0.000251
      9 H                     0.126458       0.001713
     10 H                     0.126155       0.001006
     11 H                     0.134271      -0.000283
     12 C                    -0.156760       1.063281
     13 H                     0.153547      -0.000881
  --------------------------------------------------------
  Sum of atomic charges =     0.000000

                    Cartesian Multipole Moments
 -----------------------------------------------------------------
    Charge (ESU x 10^10)
                 0.0000
    Dipole Moment (Debye)
         X       0.2959      Y       0.1006      Z      -0.1908
       Tot       0.3662
    Quadrupole Moments (Debye-Ang)
        XX     -41.2667     XY      -3.2248     YY     -38.6663
        XZ      -0.5037     YZ      -3.8907     ZZ     -44.4155

 Total job time:  258.02s(wall), 948.73s(cpu)
        *  Thank you very much for using Q-Chem.  Have a nice day.  *
