 Q-Chem 5.0, Q-Chem, Inc., Pleasanton, CA (2017)
 Q-Chem 5.0.2 for Intel X86 EM64T Linux

User input:
--------------------------------------------------------------
$molecule
0 2
C        1.3752161196    0.4386103007   -1.9041452740
C        0.2748442867   -1.4882525680    1.7288941625
C       -0.9539552648   -1.0441857678    1.5041220839
C       -1.3826196781   -0.0963319347    0.4703555377
C       -0.6012169490    0.5078903446   -0.4450687737
N        0.8055330511    0.2779938395   -0.5068268692
H        1.4594598234   -0.1641715423   -2.7917705009
H        0.7178028860   -2.1719860884    2.4426277962
H       -1.7597170328   -1.4130133103    2.1519418867
H       -2.4434791337    0.1392201146    0.4454802217
H       -1.0321981955    1.2011777785   -1.1731124212
C        1.5717216917    1.4342570075   -1.1258932655
H        1.9686083956    2.3787918263   -0.7966045839
$end

$rem
method                b3lyp
basis                 6-31+g(d,p)
unrestricted          true
symmetry              off
sym_ignore            true
incdft                false
incfock               0
scf_convergence       8
thresh                14
jobtype               sp
scf_guess             read
scf_algorithm         diis
max_scf_cycles        100
scf_final_print       1
$end

--------------------------------------------------------------

             Standard Nuclear Orientation (Angstroms)
    I     Atom           X                Y                Z
 ----------------------------------------------------------------
    1      C       1.3752161196     0.4386103007    -1.9041452740
    2      C       0.2748442867    -1.4882525680     1.7288941625
    3      C      -0.9539552648    -1.0441857678     1.5041220839
    4      C      -1.3826196781    -0.0963319347     0.4703555377
    5      C      -0.6012169490     0.5078903446    -0.4450687737
    6      N       0.8055330511     0.2779938395    -0.5068268692
    7      H       1.4594598234    -0.1641715423    -2.7917705009
    8      H       0.7178028860    -2.1719860884     2.4426277962
    9      H      -1.7597170328    -1.4130133103     2.1519418867
   10      H      -2.4434791337     0.1392201146     0.4454802217
   11      H      -1.0321981955     1.2011777785    -1.1731124212
   12      C       1.5717216917     1.4342570075    -1.1258932655
   13      H       1.9686083956     2.3787918263    -0.7966045839
 ----------------------------------------------------------------

    2    -286.7511897150      9.17E-10 Convergence criterion met
 Total energy in the final basis set = -286.75118972

                    Orbital Energies (a.u.)
 --------------------------------------------------------------

 Alpha MOs
 -- Occupied --
-14.364 -10.252 -10.250 -10.213 -10.203 -10.195 -10.194  -0.982
 -0.810  -0.747  -0.677  -0.605  -0.592  -0.543  -0.509  -0.483
 -0.438  -0.418  -0.381  -0.380  -0.343  -0.308  -0.244  -0.224
 -0.205

 Beta MOs
 -- Occupied --
-14.362 -10.252 -10.250 -10.214 -10.197 -10.193 -10.187  -0.981
 -0.807  -0.738  -0.669  -0.605  -0.583  -0.538  -0.501  -0.477
 -0.434  -0.407  -0.380  -0.377  -0.340  -0.305  -0.225  -0.217

          Ground-State Mulliken Net Atomic Charges

     Atom                 Charge (a.u.)    Spin (a.u.)
  --------------------------------------------------------
      1 C                    -0.025316      -0.002843
      2 C                    -0.306934       1.174671
      3 C                    -0.336458      -0.235899
      4 C                    -0.159325       0.066239
      5 C                     0.105896      -0.106457
      6 N                    -0.078707       0.016334
      7 H                     0.161280      -0.000784
      8 H                     0.139283       0.008062
      9 H                     0.130600       0.078215
     10 H                     0.117948      -0.002382
     11 H                     0.113394       0.007310
     12 C                    -0.023080      -0.001564
     13 H                     0.161421      -0.000904
  --------------------------------------------------------
  Sum of atomic charges =     0.000000

                    Cartesian Multipole Moments
 -----------------------------------------------------------------
    Charge (ESU x 10^10)
                 0.0000
    Dipole Moment (Debye)
         X       0.0627      Y       1.1353      Z      -1.4597
       Tot       1.8503
    Quadrupole Moments (Debye-Ang)
        XX     -39.2560     XY       2.2614     YY     -39.2037
        XZ      -3.2268     YZ      -2.1704     ZZ     -37.3348

 Total job time:  3.06s(wall), 10.51s(cpu)
        *  Thank you very much for using Q-Chem.  Have a nice day.  *
