 Q-Chem 5.0, Q-Chem, Inc., Pleasanton, CA (2017)
 Q-Chem 5.0.2 for Intel X86 EM64T Linux

User input:
--------------------------------------------------------------
$molecule
0 2
C        1.5566951844    0.2295030540   -0.8595926314
C        0.2200800137   -1.1162758618    0.7237054912
C       -1.0485258141   -1.0682352368    1.2511152320
C       -1.6967302477    0.0778924506    0.6933545607
C       -0.8013313182    0.6892429444   -0.1539085386
N        0.3746595445   -0.0402301527   -0.1379842001
H        2.3386394099   -0.5037196199   -0.6678929320
H        1.0304746364   -1.8130215077    0.8804631373
H       -1.4675523283   -1.7722942163    1.9561652617
H       -2.7051592550    0.4129497668    0.8926463800
H       -0.8954213889    1.5738004108   -0.7646344843
C        1.7786557373    1.2290523353   -1.6903474081
H        1.3155158260    2.1013356334   -2.1230898684
$end

$rem
method                b3lyp
basis                 6-31+g(d,p)
unrestricted          true
symmetry              off
sym_ignore            true
incdft                false
incfock               0
scf_convergence       6
thresh                14
jobtype               sp
scf_guess             read
scf_algorithm         diis
max_scf_cycles        100
stability_analysis    true
max_cis_cycles        100
cis_n_roots           4
$end

--------------------------------------------------------------

             Standard Nuclear Orientation (Angstroms)
    I     Atom           X                Y                Z
 ----------------------------------------------------------------
    1      C       1.5566951844     0.2295030540    -0.8595926314
    2      C       0.2200800137    -1.1162758618     0.7237054912
    3      C      -1.0485258141    -1.0682352368     1.2511152320
    4      C      -1.6967302477     0.0778924506     0.6933545607
    5      C      -0.8013313182     0.6892429444    -0.1539085386
    6      N       0.3746595445    -0.0402301527    -0.1379842001
    7      H       2.3386394099    -0.5037196199    -0.6678929320
    8      H       1.0304746364    -1.8130215077     0.8804631373
    9      H      -1.4675523283    -1.7722942163     1.9561652617
   10      H      -2.7051592550     0.4129497668     0.8926463800
   11      H      -0.8954213889     1.5738004108    -0.7646344843
   12      C       1.7786557373     1.2290523353    -1.6903474081
   13      H       1.3155158260     2.1013356334    -2.1230898684
 ----------------------------------------------------------------

    2    -286.8952070700      1.05E-09 Convergence criterion met
 Total energy in the final basis set = -286.89520707

         TDDFT/TDA Excitation Energies
 ---------------------------------------------------

 Excited state   1: excitation energy (eV) =    1.9070
 Total energy for state  1:                  -286.82512429 au
    <S**2>     :  0.7713
    Trans. Mom.: -0.0406 X  -0.0672 Y  -0.0917 Z
    Strength   :     0.0006806609
    D( 22) --> S(  1) amplitude = -0.2418 beta
    D( 23) --> S(  1) amplitude =  0.9120 beta
    D( 24) --> S(  1) amplitude =  0.3126 beta

 Excited state   2: excitation energy (eV) =    2.5672
 Total energy for state  2:                  -286.80086424 au
    <S**2>     :  0.7978
    Trans. Mom.:  0.0000 X   0.0012 Y   0.0027 Z
    Strength   :     0.0000005448
    D( 23) --> S(  1) amplitude = -0.3214 beta
    D( 24) --> S(  1) amplitude =  0.9463 beta

 Excited state   3: excitation energy (eV) =    3.7184
 Total energy for state  3:                  -286.75855995 au
    <S**2>     :  2.7424
    Trans. Mom.:  0.0031 X  -0.0256 Y   0.0173 Z
    Strength   :     0.0000879942
    S(  1) --> V(  1) amplitude =  0.7097 alpha
    D( 24) --> V(  1) amplitude = -0.6114 beta

 Excited state   4: excitation energy (eV) =    3.8529
 Total energy for state  4:                  -286.75361595 au
    <S**2>     :  2.7341
    Trans. Mom.:  0.0374 X   0.0249 Y  -0.0349 Z
    Strength   :     0.0003050023
    D( 22) --> V(  1) amplitude =  0.1563 alpha
    D( 24) --> V(  1) amplitude = -0.6519 alpha
    D( 23) --> V(  1) amplitude =  0.6821 beta

 ---------------------------------------------------

                    Orbital Energies (a.u.)
 --------------------------------------------------------------

 Alpha MOs
 -- Occupied --
-14.408 -10.253 -10.227 -10.220 -10.217 -10.186 -10.185  -1.003
 -0.830  -0.749  -0.734  -0.629  -0.585  -0.557  -0.543  -0.469
 -0.447  -0.437  -0.426  -0.397  -0.387  -0.317  -0.265  -0.239
 -0.226

 Beta MOs
 -- Occupied --
-14.406 -10.255 -10.219 -10.217 -10.212 -10.187 -10.185  -1.000
 -0.824  -0.738  -0.730  -0.616  -0.582  -0.555  -0.534  -0.462
 -0.443  -0.437  -0.423  -0.395  -0.387  -0.313  -0.231  -0.226

          Ground-State Mulliken Net Atomic Charges

     Atom                 Charge (a.u.)    Spin (a.u.)
  --------------------------------------------------------
      1 C                    -0.039234      -0.139183
      2 C                    -0.213193       0.021767
      3 C                    -0.077055      -0.020904
      4 C                    -0.143386       0.034385
      5 C                    -0.202543      -0.036453
      6 N                     0.016009       0.036768
      7 H                     0.142296       0.038485
      8 H                     0.133712       0.000251
      9 H                     0.126463       0.001712
     10 H                     0.126146       0.001007
     11 H                     0.134336      -0.000285
     12 C                    -0.157217       1.063486
     13 H                     0.153666      -0.001036
  --------------------------------------------------------
  Sum of atomic charges =     0.000000

                    Cartesian Multipole Moments
 -----------------------------------------------------------------
    Charge (ESU x 10^10)
                 0.0000
    Dipole Moment (Debye)
         X       0.2921      Y       0.0999      Z      -0.2005
       Tot       0.3681
    Quadrupole Moments (Debye-Ang)
        XX     -41.0625     XY      -3.3457     YY     -39.3689
        XZ      -0.2030     YZ      -4.1931     ZZ     -43.9091

 Total job time:  177.32s(wall), 174.27s(cpu)
        *  Thank you very much for using Q-Chem.  Have a nice day.  *
