 Q-Chem 5.0, Q-Chem, Inc., Pleasanton, CA (2017)
 Q-Chem 5.0.2 for Intel X86 EM64T Linux

User input:
--------------------------------------------------------------
$molecule
0 2
C        1.4062806294    0.1833987214   -1.4265338516
C        0.2977407986   -1.3390045594    1.1655080232
C       -0.9871515544   -1.0392284599    1.3637000837
C       -1.5903977586   -0.0613291125    0.4655901108
C       -0.7485300629    0.5991679739   -0.3586620396
N        0.6382571440    0.3122993752   -0.2238271790
H        1.5107161168   -0.6298491147   -2.1358860266
H        1.0438120471   -1.8796449871    1.7367496605
H       -1.5767312762   -1.4490794233    2.1878202514
H       -2.6539191304    0.1536280817    0.4792451170
H       -1.0488338878    1.3667136627   -1.0675914364
C        1.6728320659    1.4021005956   -1.1182617280
H        2.0521406796    2.3999691935   -1.0321011062
$end

$rem
method                b3lyp
basis                 6-31+g(d,p)
unrestricted          true
symmetry              off
sym_ignore            true
incdft                false
incfock               0
scf_convergence       6
thresh                14
jobtype               sp
scf_guess             read
scf_algorithm         diis
max_scf_cycles        100
stability_analysis    true
max_cis_cycles        100
cis_n_roots           4
$end

--------------------------------------------------------------

             Standard Nuclear Orientation (Angstroms)
    I     Atom           X                Y                Z
 ----------------------------------------------------------------
    1      C       1.4062806294     0.1833987214    -1.4265338516
    2      C       0.2977407986    -1.3390045594     1.1655080232
    3      C      -0.9871515544    -1.0392284599     1.3637000837
    4      C      -1.5903977586    -0.0613291125     0.4655901108
    5      C      -0.7485300629     0.5991679739    -0.3586620396
    6      N       0.6382571440     0.3122993752    -0.2238271790
    7      H       1.5107161168    -0.6298491147    -2.1358860266
    8      H       1.0438120471    -1.8796449871     1.7367496605
    9      H      -1.5767312762    -1.4490794233     2.1878202514
   10      H      -2.6539191304     0.1536280817     0.4792451170
   11      H      -1.0488338878     1.3667136627    -1.0675914364
   12      C       1.6728320659     1.4021005956    -1.1182617280
   13      H       2.0521406796     2.3999691935    -1.0321011062
 ----------------------------------------------------------------

    2    -286.7391920298      3.58E-09 Convergence criterion met
 Total energy in the final basis set = -286.73919203

         TDDFT/TDA Excitation Energies
 ---------------------------------------------------

 Excited state   1: excitation energy (eV) =    2.3457
 Total energy for state  1:                  -286.65298963 au
    <S**2>     :  0.8951
    Trans. Mom.: -0.0613 X   0.1490 Y  -0.1525 Z
    Strength   :     0.0028277172
    S(  1) --> V(  1) amplitude =  0.9689 alpha

 Excited state   2: excitation energy (eV) =    2.5597
 Total energy for state  2:                  -286.64512353 au
    <S**2>     :  1.0104
    Trans. Mom.:  0.0301 X  -0.0299 Y  -0.1070 Z
    Strength   :     0.0008315766
    S(  1) --> V(  2) amplitude =  0.8694 alpha
    D( 24) --> S(  1) amplitude =  0.4081 beta

 Excited state   3: excitation energy (eV) =    2.6247
 Total energy for state  3:                  -286.64273467 au
    <S**2>     :  0.9674
    Trans. Mom.:  0.0183 X  -0.0711 Y   0.0756 Z
    Strength   :     0.0007137196
    D( 24) --> V(  1) amplitude = -0.1959 alpha
    S(  1) --> V(  2) amplitude = -0.4341 alpha
    S(  1) --> V(  3) amplitude =  0.2744 alpha
    D( 24) --> S(  1) amplitude =  0.7958 beta

 Excited state   4: excitation energy (eV) =    3.1520
 Total energy for state  4:                  -286.62335867 au
    <S**2>     :  1.7979
    Trans. Mom.:  0.2612 X   0.3055 Y  -0.2546 Z
    Strength   :     0.0174802971
    D( 24) --> V(  1) amplitude =  0.4596 alpha
    D( 24) --> V(  2) amplitude =  0.2297 alpha
    S(  1) --> V(  3) amplitude =  0.6402 alpha
    D( 23) --> S(  1) amplitude = -0.2445 beta
    D( 24) --> V(  1) amplitude =  0.2032 beta
    D( 24) --> V(  2) amplitude = -0.3325 beta

 ---------------------------------------------------

                    Orbital Energies (a.u.)
 --------------------------------------------------------------

 Alpha MOs
 -- Occupied --
-14.388 -10.259 -10.245 -10.216 -10.197 -10.190 -10.187  -0.969
 -0.822  -0.739  -0.684  -0.608  -0.579  -0.538  -0.523  -0.490
 -0.445  -0.412  -0.392  -0.381  -0.341  -0.300  -0.268  -0.220
 -0.166

 Beta MOs
 -- Occupied --
-14.386 -10.259 -10.240 -10.216 -10.189 -10.188 -10.185  -0.967
 -0.818  -0.732  -0.676  -0.602  -0.572  -0.533  -0.515  -0.486
 -0.440  -0.405  -0.387  -0.375  -0.335  -0.293  -0.250  -0.210

          Ground-State Mulliken Net Atomic Charges

     Atom                 Charge (a.u.)    Spin (a.u.)
  --------------------------------------------------------
      1 C                    -0.027992      -0.084313
      2 C                    -0.341223       0.854840
      3 C                    -0.140494      -0.141811
      4 C                    -0.088550       0.096059
      5 C                    -0.167317      -0.071864
      6 N                    -0.035937      -0.034711
      7 H                     0.148396       0.007989
      8 H                     0.128623       0.008172
      9 H                     0.129771       0.049259
     10 H                     0.123307       0.001232
     11 H                     0.132429      -0.000129
     12 C                    -0.042116       0.327693
     13 H                     0.181102      -0.012416
  --------------------------------------------------------
  Sum of atomic charges =    -0.000000

                    Cartesian Multipole Moments
 -----------------------------------------------------------------
    Charge (ESU x 10^10)
                -0.0000
    Dipole Moment (Debye)
         X       0.5461      Y       1.0498      Z      -1.4486
       Tot       1.8705
    Quadrupole Moments (Debye-Ang)
        XX     -38.6191     XY       0.6966     YY     -39.6167
        XZ      -2.7806     YZ      -2.1212     ZZ     -40.4019

 Total job time:  191.08s(wall), 187.23s(cpu)
        *  Thank you very much for using Q-Chem.  Have a nice day.  *
