 Q-Chem 5.0, Q-Chem, Inc., Pleasanton, CA (2017)
 Q-Chem 5.0.2 for Intel X86 EM64T Linux

User input:
--------------------------------------------------------------
$molecule
0 2
C        1.4863198480    0.1406611283   -1.0286141872
C        0.3809598106   -1.5380158496    1.3020758943
C       -0.8738857295   -1.1862983077    1.0579204994
C       -1.3828425272    0.0383925413    0.4436233337
C       -0.6656426917    1.0358087735   -0.1151685255
N        0.7434507616    1.1226948511   -0.1452464393
H        1.8010587294   -0.8863420741   -0.9689244008
H        0.8579515543   -2.3839046898    1.7826767364
H       -1.6552250650   -1.8915307667    1.3739970822
H       -2.4628365451    0.1610954969    0.4621283459
H       -1.1814465117    1.9192420229   -0.4927520229
C        1.3841902028    1.3281028462   -1.4937155776
H        1.5679481640    2.1400940275   -2.1780007387
****
C        1.4390666818    0.3650342021   -0.8346071485
C        0.1644191350   -1.1216998252    0.6697838865
C       -1.0988664321   -1.1411594819    1.2047765089
C       -1.7824634220    0.0181251569    0.7219598726
C       -0.9135108469    0.7036570880   -0.0902239052
N        0.2821463619    0.0072480144   -0.1263094889
H        2.2540296003   -0.3520448358   -0.7043665071
H        0.9965376343   -1.8031861614    0.7770824777
H       -1.4940490989   -1.8990778887    1.8675329350
H       -2.7991473006    0.3107760630    0.9478370738
H       -1.0239617029    1.6205058237   -0.6498428285
C        1.5939340299    1.4338094391   -1.5904885745
H        2.3818653601    1.8580124057   -2.1931343018
$end

$rem
method                b3lyp
basis                 6-31g(d)
unrestricted          true
symmetry              off
sym_ignore            true
incdft                false
incfock               0
scf_convergence       8
thresh                14
jobtype               fsm
scf_guess             core
scf_guess_mix         5
scf_algorithm         diis
max_scf_cycles        100
fsm_nnode             21
fsm_ngrad             6
fsm_mode              2
fsm_opt_mode          2
$end

--------------------------------------------------------------

   23    -286.7239731056      7.45E-09 Convergence criterion met
 Total energy in the final basis set = -286.72397311
   22    -286.8723762416      5.08E-09 Convergence criterion met
 Total energy in the final basis set = -286.87237624
   22    -286.7230789613      9.42E-09 Convergence criterion met
 Total energy in the final basis set = -286.72307896
   23    -286.7224539415      6.09E-09 Convergence criterion met
 Total energy in the final basis set = -286.72245394
   23    -286.7144598521      9.68E-09 Convergence criterion met
 Total energy in the final basis set = -286.71445985
   22    -286.7193267571      8.00E-09 Convergence criterion met
 Total energy in the final basis set = -286.71932676
   22    -286.8674075773      3.83E-09 Convergence criterion met
 Total energy in the final basis set = -286.86740758
   22    -286.8702028754      8.37E-09 Convergence criterion met
 Total energy in the final basis set = -286.69600772
   25    -286.6957970374      4.05E-09 Convergence criterion met
 Total energy in the final basis set = -286.69579704
   25    -286.6960395066      3.60E-09 Convergence criterion met
 Total energy in the final basis set = -286.69603951
   25    -286.6957692273      4.03E-09 Convergence criterion met
 Total energy in the final basis set = -286.69576923
   25    -286.6960542602      3.62E-09 Convergence criterion met
 Total energy in the final basis set = -286.69605426
   25    -286.6957571849      4.03E-09 Convergence criterion met
 Total energy in the final basis set = -286.69575718
   25    -286.6960587623      3.62E-09 Convergence criterion met
 Total energy in the final basis set = -286.69605876
   25    -286.6957552443      4.03E-09 Convergence criterion met
 Total energy in the final basis set = -286.69575524

                    Orbital Energies (a.u.)
 --------------------------------------------------------------

 Alpha MOs
 -- Occupied --
-14.368 -10.237 -10.220 -10.208 -10.196 -10.186 -10.177  -0.934
 -0.810  -0.737  -0.678  -0.598  -0.573  -0.520  -0.511  -0.485
 -0.438  -0.403  -0.386  -0.377  -0.307  -0.290  -0.241  -0.203
 -0.190

 Beta MOs
 -- Occupied --
-14.370 -10.237 -10.214 -10.209 -10.187 -10.183 -10.176  -0.935
 -0.805  -0.731  -0.670  -0.588  -0.565  -0.516  -0.505  -0.481
 -0.434  -0.399  -0.385  -0.374  -0.305  -0.275  -0.237  -0.195

          Ground-State Mulliken Net Atomic Charges

     Atom                 Charge (a.u.)    Spin (a.u.)
  --------------------------------------------------------
      1 C                     0.062933      -0.067780
      2 C                    -0.194996       0.857790
      3 C                    -0.128718      -0.135360
      4 C                    -0.118206       0.055491
      5 C                     0.026781      -0.037073
      6 N                    -0.391608      -0.187478
      7 H                     0.154703       0.016521
      8 H                     0.148073       0.001379
      9 H                     0.139127       0.063302
     10 H                     0.129857       0.000443
     11 H                     0.144085      -0.007660
     12 C                    -0.156079       0.437493
     13 H                     0.184048       0.002931
  --------------------------------------------------------
  Sum of atomic charges =    -0.000000

                    Cartesian Multipole Moments
 -----------------------------------------------------------------
    Charge (ESU x 10^10)
                -0.0000
    Dipole Moment (Debye)
         X       0.3798      Y      -0.3758      Z      -1.4169
       Tot       1.5142
    Quadrupole Moments (Debye-Ang)
        XX     -36.1722     XY      -1.1096     YY     -36.7136
        XZ      -3.7115     YZ      -4.7963     ZZ     -40.5723

             Standard Nuclear Orientation (Angstroms)
    I     Atom           X                Y                Z
 ----------------------------------------------------------------
    1      C       1.4628101094     0.1445654151    -1.1340797347
    2      C       0.2894502819    -1.2705779331     1.1991555815
    3      C      -1.0291855556    -1.1735757365     1.1517007316
    4      C      -1.6067740671    -0.0059832272     0.4981993664
    5      C      -0.7458529239     0.8333333120    -0.1132353455
    6      N       0.6503805322     0.6073237525    -0.0381949649
    7      H       1.9024752958    -0.8290432509    -1.2961894725
    8      H       1.0315114217    -1.9725004577     1.5639368432
    9      H      -1.6748641773    -1.9088817170     1.6385797579
   10      H      -2.6663680847     0.2040368511     0.5575494085
   11      H      -1.0626825773     1.7727618956    -0.5523774691
   12      C       1.5307872932     1.3796587277    -1.4665114339
   13      H       1.9345282626     2.2380243154    -1.9727833894
 ----------------------------------------------------------------

 Total job time:  1374.08s(wall), 4030.18s(cpu)
        *  Thank you very much for using Q-Chem.  Have a nice day.  *
