 Q-Chem 5.0, Q-Chem, Inc., Pleasanton, CA (2017)
 Q-Chem 5.0.2 for Intel X86 EM64T Linux

User input:
--------------------------------------------------------------
$molecule
0 2
C        1.4130909425    0.2553955414   -1.6314702719
C        0.3006226867   -1.5137682789    1.4737309381
C       -0.9483985818   -1.0725808212    1.3997276039
C       -1.4380010440   -0.0486238455    0.4705917719
C       -0.6504590910    0.6909927205   -0.3342908462
N        0.7667052774    0.5390261190   -0.2939781641
H        1.5699765967   -0.6070273248   -2.2556114141
H        0.8316286599   -2.2231152647    2.0958631375
H       -1.6972836087   -1.4909171798    2.0828873808
H       -2.5105359326    0.1239635684    0.4394485812
H       -1.0701971392    1.4392867446   -1.0108732738
C        1.5337065770    1.4602827052   -1.2142249932
H        1.9153604673    2.4662272598   -1.1860505799
$end

$rem
method                b3lyp
basis                 6-31+g(d,p)
unrestricted          true
symmetry              off
sym_ignore            true
incdft                false
incfock               0
scf_convergence       8
thresh                14
jobtype               opt
scf_guess             read
scf_algorithm         diis
max_scf_cycles        100
geom_opt_max_cycles   300
$end

--------------------------------------------------------------

   19    -286.7503131849      5.16E-09 Convergence criterion met
 Total energy in the final basis set = -286.75031318
   14    -286.7506546298      5.78E-09 Convergence criterion met
 Total energy in the final basis set = -286.75065463
   14    -286.7507571065      4.09E-09 Convergence criterion met
 Total energy in the final basis set = -286.75075711
   14    -286.7508687189      6.05E-09 Convergence criterion met
 Total energy in the final basis set = -286.75086872
   14    -286.7510055688      8.24E-09 Convergence criterion met
 Total energy in the final basis set = -286.75100557
   14    -286.7511060033      4.84E-09 Convergence criterion met
 Total energy in the final basis set = -286.75110600
   14    -286.7511757789      4.61E-09 Convergence criterion met
 Total energy in the final basis set = -286.75117578
   12    -286.7511832799      6.97E-09 Convergence criterion met
 Total energy in the final basis set = -286.75118328
   11    -286.7511864652      6.59E-09 Convergence criterion met
 Total energy in the final basis set = -286.75118647
   11    -286.7511878318      3.74E-09 Convergence criterion met
 Total energy in the final basis set = -286.75118783
   11    -286.7511891741      4.80E-09 Convergence criterion met
 Total energy in the final basis set = -286.75118917

             Standard Nuclear Orientation (Angstroms)
    I     Atom           X                Y                Z
 ----------------------------------------------------------------
    1      C       1.3764634896     0.4400827579    -1.9013952840
    2      C       0.2760916567    -1.4867801108     1.7316441525
    3      C      -0.9527078948    -1.0427133106     1.5068720739
    4      C      -1.3813723081    -0.0948594775     0.4731055277
    5      C      -0.5999695790     0.5093628018    -0.4423187837
    6      N       0.8067804211     0.2794662967    -0.5040768792
    7      H       1.4607071934    -0.1626990851    -2.7890205109
    8      H       0.7190502560    -2.1705136312     2.4453777862
    9      H      -1.7584696628    -1.4115408531     2.1546918767
   10      H      -2.4422317637     0.1406925718     0.4482302117
   11      H      -1.0309508255     1.2026502357    -1.1703624312
   12      C       1.5729690617     1.4357294647    -1.1231432755
   13      H       1.9698557656     2.3802642835    -0.7938545939
 ----------------------------------------------------------------

    9    -286.7511897150      8.60E-09 Convergence criterion met
 Total energy in the final basis set = -286.75118972
 Final energy is   -286.751189715046
 **  OPTIMIZATION CONVERGED  **

                    Orbital Energies (a.u.)
 --------------------------------------------------------------

 Alpha MOs
 -- Occupied --
-14.364 -10.252 -10.250 -10.213 -10.203 -10.195 -10.194  -0.982
 -0.810  -0.747  -0.677  -0.605  -0.592  -0.543  -0.509  -0.483
 -0.438  -0.418  -0.381  -0.380  -0.343  -0.308  -0.244  -0.224
 -0.205

 Beta MOs
 -- Occupied --
-14.362 -10.252 -10.250 -10.214 -10.197 -10.193 -10.187  -0.981
 -0.807  -0.738  -0.669  -0.605  -0.583  -0.538  -0.501  -0.477
 -0.434  -0.407  -0.380  -0.377  -0.340  -0.305  -0.225  -0.217

          Ground-State Mulliken Net Atomic Charges

     Atom                 Charge (a.u.)    Spin (a.u.)
  --------------------------------------------------------
      1 C                    -0.025316      -0.002842
      2 C                    -0.306934       1.174676
      3 C                    -0.336458      -0.235902
      4 C                    -0.159325       0.066245
      5 C                     0.105895      -0.106464
      6 N                    -0.078707       0.016335
      7 H                     0.161280      -0.000784
      8 H                     0.139283       0.008062
      9 H                     0.130600       0.078215
     10 H                     0.117948      -0.002383
     11 H                     0.113394       0.007311
     12 C                    -0.023081      -0.001565
     13 H                     0.161421      -0.000903
  --------------------------------------------------------
  Sum of atomic charges =    -0.000000

                    Cartesian Multipole Moments
 -----------------------------------------------------------------
    Charge (ESU x 10^10)
                -0.0000
    Dipole Moment (Debye)
         X       0.0627      Y       1.1353      Z      -1.4597
       Tot       1.8503
    Quadrupole Moments (Debye-Ang)
        XX     -39.2558     XY       2.2629     YY     -39.2004
        XZ      -3.2285     YZ      -2.1694     ZZ     -37.3428

 Total job time:  246.18s(wall), 899.33s(cpu)
        *  Thank you very much for using Q-Chem.  Have a nice day.  *
