 Q-Chem 5.0, Q-Chem, Inc., Pleasanton, CA (2017)
 Q-Chem 5.0.2 for Intel X86 EM64T Linux

User input:
--------------------------------------------------------------
$molecule
0 2
C        1.4394442610    0.3649620133   -0.8343849961
C        0.1639100808   -1.1224929674    0.6688710912
C       -1.0985334685   -1.1403712941    1.2059641024
C       -1.7822872624    0.0183985249    0.7220507838
C       -0.9137218517    0.7024833780   -0.0918295297
N        0.2820549193    0.0063156003   -0.1272837992
H        2.2542222487   -0.3523359476   -0.7044093675
H        0.9957228985   -1.8043755039    0.7755890770
H       -1.4936121630   -1.8977112968    1.8694459220
H       -2.7986403232    0.3116469099    0.9487068212
H       -1.0245215360    1.6189797310   -0.6519096749
C        1.5943048934    1.4346907237   -1.5890019243
H        2.3816573030    1.8598101287   -2.1918085059
$end

$rem
method                b3lyp
basis                 6-31g(d)
unrestricted          true
symmetry              off
sym_ignore            true
incdft                false
incfock               0
scf_convergence       8
thresh                14
jobtype               opt
scf_guess             core
scf_guess_mix         5
scf_algorithm         diis
max_scf_cycles        100
geom_opt_max_cycles   300
$end

--------------------------------------------------------------

   22    -286.8723756819      5.00E-09 Convergence criterion met
 Total energy in the final basis set = -286.87237568

             Standard Nuclear Orientation (Angstroms)
    I     Atom           X                Y                Z
 ----------------------------------------------------------------
    1      C       1.4390666818     0.3650342021    -0.8346071485
    2      C       0.1644191350    -1.1216998252     0.6697838865
    3      C      -1.0988664321    -1.1411594819     1.2047765089
    4      C      -1.7824634220     0.0181251569     0.7219598726
    5      C      -0.9135108469     0.7036570880    -0.0902239052
    6      N       0.2821463619     0.0072480144    -0.1263094889
    7      H       2.2540296003    -0.3520448358    -0.7043665071
    8      H       0.9965376343    -1.8031861614     0.7770824777
    9      H      -1.4940490989    -1.8990778887     1.8675329350
   10      H      -2.7991473006     0.3107760630     0.9478370738
   11      H      -1.0239617029     1.6205058237    -0.6498428285
   12      C       1.5939340299     1.4338094391    -1.5904885745
   13      H       2.3818653601     1.8580124057    -2.1931343018
 ----------------------------------------------------------------

   16    -286.8723762571      2.91E-09 Convergence criterion met
 Total energy in the final basis set = -286.87237626
 Final energy is   -286.872376257053
 **  OPTIMIZATION CONVERGED  **

                    Orbital Energies (a.u.)
 --------------------------------------------------------------

 Alpha MOs
 -- Occupied --
-14.392 -10.242 -10.214 -10.205 -10.201 -10.171 -10.170  -0.988
 -0.817  -0.737  -0.720  -0.618  -0.574  -0.544  -0.513  -0.476
 -0.428  -0.423  -0.417  -0.386  -0.374  -0.303  -0.255  -0.224
 -0.210

 Beta MOs
 -- Occupied --
-14.391 -10.243 -10.205 -10.201 -10.198 -10.171 -10.170  -0.987
 -0.812  -0.725  -0.717  -0.605  -0.573  -0.543  -0.500  -0.466
 -0.424  -0.424  -0.414  -0.385  -0.374  -0.301  -0.216  -0.211

          Ground-State Mulliken Net Atomic Charges

     Atom                 Charge (a.u.)    Spin (a.u.)
  --------------------------------------------------------
      1 C                     0.068159      -0.140538
      2 C                     0.027382      -0.002596
      3 C                    -0.193243      -0.005412
      4 C                    -0.186813      -0.008642
      5 C                     0.037413       0.008954
      6 N                    -0.401214       0.019507
      7 H                     0.163149       0.068837
      8 H                     0.144959       0.000095
      9 H                     0.128556       0.001023
     10 H                     0.128885       0.000824
     11 H                     0.154927       0.000533
     12 C                    -0.244444       1.062427
     13 H                     0.172285      -0.005014
  --------------------------------------------------------
  Sum of atomic charges =     0.000000

                    Cartesian Multipole Moments
 -----------------------------------------------------------------
    Charge (ESU x 10^10)
                 0.0000
    Dipole Moment (Debye)
         X       1.3558      Y      -0.1715      Z      -0.4514
       Tot       1.4392
    Quadrupole Moments (Debye-Ang)
        XX     -35.5771     XY      -1.3836     YY     -39.3088
        XZ      -2.9281     YZ      -3.1000     ZZ     -41.6263

 Total job time:  47.08s(wall), 111.34s(cpu)
        *  Thank you very much for using Q-Chem.  Have a nice day.  *
