 Q-Chem 5.0, Q-Chem, Inc., Pleasanton, CA (2017)
 Q-Chem 5.0.2 for Intel X86 EM64T Linux

User input:
--------------------------------------------------------------
$molecule
0 2
C        1.4087790899    0.1838199692   -1.4141116078
C        0.2973510422   -1.3371744432    1.1613111933
C       -0.9877935738   -1.0473242938    1.3577904388
C       -1.5871854531   -0.0614473978    0.4659561111
C       -0.7436474367    0.6066389831   -0.3458072292
N        0.6454243124    0.3224971749   -0.2058117782
H        1.5036915323   -0.6338171678   -2.1211301216
H        1.0356461369   -1.8830589599    1.7393838374
H       -1.5846844583   -1.4658486623    2.1730632436
H       -2.6521776549    0.1503216944    0.4748920123
H       -1.0398057870    1.3764908901   -1.0541617824
C        1.6746787848    1.4011465988   -1.1079380098
H        2.0459392763    2.4068975614   -1.0876864283
$end

$rem
method                b3lyp
basis                 6-31+g(d,p)
unrestricted          true
symmetry              off
sym_ignore            true
incdft                false
incfock               0
scf_convergence       8
thresh                14
jobtype               freq
scf_guess             read
scf_algorithm         diis
max_scf_cycles        100
$end

--------------------------------------------------------------

             Standard Nuclear Orientation (Angstroms)
    I     Atom           X                Y                Z
 ----------------------------------------------------------------
    1      C       1.4087790899     0.1838199692    -1.4141116078
    2      C       0.2973510422    -1.3371744432     1.1613111933
    3      C      -0.9877935738    -1.0473242938     1.3577904388
    4      C      -1.5871854531    -0.0614473978     0.4659561111
    5      C      -0.7436474367     0.6066389831    -0.3458072292
    6      N       0.6454243124     0.3224971749    -0.2058117782
    7      H       1.5036915323    -0.6338171678    -2.1211301216
    8      H       1.0356461369    -1.8830589599     1.7393838374
    9      H      -1.5846844583    -1.4658486623     2.1730632436
   10      H      -2.6521776549     0.1503216944     0.4748920123
   11      H      -1.0398057870     1.3764908901    -1.0541617824
   12      C       1.6746787848     1.4011465988    -1.1079380098
   13      H       2.0459392763     2.4068975614    -1.0876864283
 ----------------------------------------------------------------

    2    -286.7391181803      2.32E-09 Convergence criterion met
 Total energy in the final basis set = -286.73911818

                    Orbital Energies (a.u.)
 --------------------------------------------------------------

 Alpha MOs
 -- Occupied --
-14.389 -10.257 -10.244 -10.215 -10.197 -10.190 -10.186  -0.969
 -0.822  -0.739  -0.684  -0.607  -0.579  -0.538  -0.523  -0.489
 -0.443  -0.412  -0.392  -0.381  -0.341  -0.301  -0.268  -0.221
 -0.167

 Beta MOs
 -- Occupied --
-14.387 -10.258 -10.239 -10.216 -10.189 -10.187 -10.185  -0.967
 -0.818  -0.732  -0.676  -0.601  -0.572  -0.533  -0.515  -0.485
 -0.438  -0.406  -0.387  -0.375  -0.335  -0.294  -0.250  -0.211

          Ground-State Mulliken Net Atomic Charges

     Atom                 Charge (a.u.)    Spin (a.u.)
  --------------------------------------------------------
      1 C                    -0.025545      -0.087648
      2 C                    -0.349498       0.849839
      3 C                    -0.131396      -0.142179
      4 C                    -0.097592       0.097916
      5 C                    -0.159234      -0.073645
      6 N                    -0.033898      -0.033025
      7 H                     0.148301       0.008328
      8 H                     0.128230       0.009098
      9 H                     0.129880       0.049447
     10 H                     0.123330       0.001367
     11 H                     0.132299      -0.000296
     12 C                    -0.043419       0.331001
     13 H                     0.178543      -0.010202
  --------------------------------------------------------
  Sum of atomic charges =     0.000000

                    Cartesian Multipole Moments
 -----------------------------------------------------------------
    Charge (ESU x 10^10)
                 0.0000
    Dipole Moment (Debye)
         X       0.4843      Y       1.0294      Z      -1.5035
       Tot       1.8854
    Quadrupole Moments (Debye-Ang)
        XX     -38.7320     XY       0.6921     YY     -39.5460
        XZ      -2.8985     YZ      -2.3452     ZZ     -40.3029

 Frequency:      -638.25                 102.31                 148.88
 Force Cnst:      1.4084                 0.0210                 0.0719
 Red. Mass:       5.8681                 3.3969                 5.5085
 IR Intens:       75.808                  6.382                  4.905
 Frequency:       225.09                 321.82                 362.23
 Force Cnst:      0.0841                 0.2091                 0.1792
 Red. Mass:       2.8174                 3.4272                 2.3174
 IR Intens:        4.385                  5.892                 13.603
 Frequency:       413.40                 500.63                 531.96
 Force Cnst:      0.1485                 0.4379                 0.3464
 Red. Mass:       1.4750                 2.9654                 2.0779
 IR Intens:       41.836                 23.568                 28.055
 Frequency:       648.94                 662.01                 732.65
 Force Cnst:      0.3478                 0.3253                 0.5518
 Red. Mass:       1.4016                 1.2600                 1.7447
 IR Intens:       53.855                 26.211                 29.000
 Frequency:       748.13                 818.05                 861.64
 Force Cnst:      0.5920                 0.6235                 0.8119
 Red. Mass:       1.7953                 1.5815                 1.8562
 IR Intens:       11.687                 15.212                  6.857
 Frequency:       874.01                 926.13                 959.27
 Force Cnst:      0.6813                 0.6704                 1.7135
 Red. Mass:       1.5137                 1.3266                 3.1605
 IR Intens:        2.284                  0.371                  3.657
 Frequency:      1022.35                1091.95                1156.78
 Force Cnst:      1.2646                 1.0881                 1.2386
 Red. Mass:       2.0535                 1.5489                 1.5710
 IR Intens:        1.334                 32.443                  6.450
 Frequency:      1210.18                1236.47                1390.79
 Force Cnst:      1.4717                 1.2021                 1.9208
 Red. Mass:       1.7056                 1.3345                 1.6855
 IR Intens:       21.556                 39.244                  8.871
 Frequency:      1572.09                1655.70                1760.40
 Force Cnst:     11.3183                 8.5545                 9.0181
 Red. Mass:       7.7728                 5.2964                 4.9390
 IR Intens:        9.292                  5.157                 52.696
 Frequency:      3092.52                3175.24                3206.40
 Force Cnst:      6.1171                 6.4640                 6.6536
 Red. Mass:       1.0856                 1.0882                 1.0984
 IR Intens:       36.815                  1.968                 20.865
 Frequency:      3211.45                3219.22                3390.89
 Force Cnst:      6.7038                 6.7302                 7.6752
 Red. Mass:       1.1032                 1.1022                 1.1330
 IR Intens:        8.752                  5.337                 67.295

 STANDARD THERMODYNAMIC QUANTITIES AT   298.15 K  AND     1.00 ATM

   This Molecule has  1 Imaginary Frequencies
   Zero point vibrational energy:       58.941 kcal/mol

   Atom    1 Element C  Has Mass   12.00000
   Atom    2 Element C  Has Mass   12.00000
   Atom    3 Element C  Has Mass   12.00000
   Atom    4 Element C  Has Mass   12.00000
   Atom    5 Element C  Has Mass   12.00000
   Atom    6 Element N  Has Mass   14.00307
   Atom    7 Element H  Has Mass    1.00783
   Atom    8 Element H  Has Mass    1.00783
   Atom    9 Element H  Has Mass    1.00783
   Atom   10 Element H  Has Mass    1.00783
   Atom   11 Element H  Has Mass    1.00783
   Atom   12 Element C  Has Mass   12.00000
   Atom   13 Element H  Has Mass    1.00783
   Molecular Mass:    92.050050 amu
   Principal axes and moments of inertia in amu*Bohr^2:
                             1           2           3
    Eigenvalues --      278.02947   854.89057  1047.24715
          X               0.64651     0.72488     0.23788
          Y               0.46074    -0.61950     0.63556
          Z              -0.60807     0.30130     0.73449
   Rotational Symmetry Number is   1
   The Molecule is an Asymmetric Top
   Translational Enthalpy:        0.889 kcal/mol
   Rotational Enthalpy:           0.889 kcal/mol
   Vibrational Enthalpy:         61.597 kcal/mol
   gas constant (RT):             0.592 kcal/mol
   Translational Entropy:        39.471  cal/mol.K
   Rotational Entropy:           27.012  cal/mol.K
   Vibrational Entropy:          14.890  cal/mol.K

   Total Enthalpy:               63.967 kcal/mol
   Total Entropy:                81.373  cal/mol.K

 Total job time:  527.24s(wall), 517.68s(cpu)
        *  Thank you very much for using Q-Chem.  Have a nice day.  *
