 Q-Chem 5.0, Q-Chem, Inc., Pleasanton, CA (2017)
 Q-Chem 5.0.2 for Intel X86 EM64T Linux

User input:
--------------------------------------------------------------
$molecule
0 2
C        1.4087790899    0.1838199692   -1.4141116078
C        0.2973510422   -1.3371744432    1.1613111933
C       -0.9877935738   -1.0473242938    1.3577904388
C       -1.5871854531   -0.0614473978    0.4659561111
C       -0.7436474367    0.6066389831   -0.3458072292
N        0.6454243124    0.3224971749   -0.2058117782
H        1.5036915323   -0.6338171678   -2.1211301216
H        1.0356461369   -1.8830589599    1.7393838374
H       -1.5846844583   -1.4658486623    2.1730632436
H       -2.6521776549    0.1503216944    0.4748920123
H       -1.0398057870    1.3764908901   -1.0541617824
C        1.6746787848    1.4011465988   -1.1079380098
H        2.0459392763    2.4068975614   -1.0876864283
$end

$rem
method                b3lyp
basis                 6-31g(d)
unrestricted          true
symmetry              off
sym_ignore            true
incdft                false
incfock               0
scf_convergence       6
thresh                14
jobtype               sp
scf_guess             read
scf_algorithm         diis
max_scf_cycles        100
stability_analysis    true
max_cis_cycles        100
cis_n_roots           4
$end

--------------------------------------------------------------

             Standard Nuclear Orientation (Angstroms)
    I     Atom           X                Y                Z
 ----------------------------------------------------------------
    1      C       1.4087790899     0.1838199692    -1.4141116078
    2      C       0.2973510422    -1.3371744432     1.1613111933
    3      C      -0.9877935738    -1.0473242938     1.3577904388
    4      C      -1.5871854531    -0.0614473978     0.4659561111
    5      C      -0.7436474367     0.6066389831    -0.3458072292
    6      N       0.6454243124     0.3224971749    -0.2058117782
    7      H       1.5036915323    -0.6338171678    -2.1211301216
    8      H       1.0356461369    -1.8830589599     1.7393838374
    9      H      -1.5846844583    -1.4658486623     2.1730632436
   10      H      -2.6521776549     0.1503216944     0.4748920123
   11      H      -1.0398057870     1.3764908901    -1.0541617824
   12      C       1.6746787848     1.4011465988    -1.1079380098
   13      H       2.0459392763     2.4068975614    -1.0876864283
 ----------------------------------------------------------------

    2    -286.7127326134      1.11E-09 Convergence criterion met
 Total energy in the final basis set = -286.71273261

         TDDFT/TDA Excitation Energies
 ---------------------------------------------------

 Excited state   1: excitation energy (eV) =    2.5067
 Total energy for state  1:                  -286.62061328 au
    <S**2>     :  0.9347
    Trans. Mom.: -0.0487 X   0.1123 Y  -0.1727 Z
    Strength   :     0.0027508841
    S(  1) --> V(  1) amplitude =  0.9605 alpha

 Excited state   2: excitation energy (eV) =    2.6884
 Total energy for state  2:                  -286.61393740 au
    <S**2>     :  1.0765
    Trans. Mom.: -0.0113 X   0.1057 Y  -0.0435 Z
    Strength   :     0.0008690042
    D( 24) --> V(  1) amplitude =  0.2278 alpha
    S(  1) --> V(  2) amplitude = -0.1596 alpha
    S(  1) --> V(  3) amplitude = -0.2850 alpha
    D( 24) --> S(  1) amplitude =  0.8793 beta

 Excited state   3: excitation energy (eV) =    2.8040
 Total energy for state  3:                  -286.60968902 au
    <S**2>     :  0.9392
    Trans. Mom.: -0.0225 X   0.0429 Y  -0.1012 Z
    Strength   :     0.0008645217
    S(  1) --> V(  2) amplitude =  0.9576 alpha
    D( 24) --> S(  1) amplitude =  0.1579 beta

 Excited state   4: excitation energy (eV) =    3.2762
 Total energy for state  4:                  -286.59233575 au
    <S**2>     :  2.2273
    Trans. Mom.:  0.1227 X   0.1103 Y  -0.1012 Z
    Strength   :     0.0030081828
    D( 24) --> V(  1) amplitude =  0.5781 alpha
    D( 24) --> V(  2) amplitude =  0.2233 alpha
    S(  1) --> V(  3) amplitude =  0.4382 alpha
    D( 23) --> S(  1) amplitude = -0.1705 beta
    D( 24) --> V(  1) amplitude = -0.3539 beta
    D( 24) --> V(  2) amplitude =  0.4347 beta

 ---------------------------------------------------

                    Orbital Energies (a.u.)
 --------------------------------------------------------------

 Alpha MOs
 -- Occupied --
-14.375 -10.245 -10.231 -10.201 -10.182 -10.176 -10.172  -0.955
 -0.808  -0.725  -0.671  -0.598  -0.569  -0.528  -0.512  -0.478
 -0.431  -0.400  -0.380  -0.369  -0.328  -0.287  -0.255  -0.206
 -0.153

 Beta MOs
 -- Occupied --
-14.372 -10.246 -10.226 -10.202 -10.176 -10.173 -10.169  -0.953
 -0.804  -0.718  -0.663  -0.592  -0.562  -0.523  -0.504  -0.474
 -0.426  -0.394  -0.375  -0.363  -0.322  -0.280  -0.236  -0.196

          Ground-State Mulliken Net Atomic Charges

     Atom                 Charge (a.u.)    Spin (a.u.)
  --------------------------------------------------------
      1 C                    -0.013379      -0.062570
      2 C                    -0.168720       0.780255
      3 C                    -0.146275      -0.097948
      4 C                    -0.126158       0.045402
      5 C                     0.024769      -0.020110
      6 N                    -0.365796      -0.024253
      7 H                     0.161304       0.009176
      8 H                     0.133407       0.006655
      9 H                     0.126731       0.052058
     10 H                     0.126475       0.001519
     11 H                     0.130883      -0.001508
     12 C                    -0.073842       0.322312
     13 H                     0.190601      -0.010988
  --------------------------------------------------------
  Sum of atomic charges =     0.000000

                    Cartesian Multipole Moments
 -----------------------------------------------------------------
    Charge (ESU x 10^10)
                 0.0000
    Dipole Moment (Debye)
         X       0.5213      Y       0.9961      Z      -1.6022
       Tot       1.9573
    Quadrupole Moments (Debye-Ang)
        XX     -37.3054     XY       0.8330     YY     -37.5753
        XZ      -2.8221     YZ      -2.3738     ZZ     -38.3555

 Total job time:  88.50s(wall), 83.14s(cpu)
        *  Thank you very much for using Q-Chem.  Have a nice day.  *
