 Q-Chem 5.0, Q-Chem, Inc., Pleasanton, CA (2017)
 Q-Chem 5.0.2 for Intel X86 EM64T Linux

User input:
--------------------------------------------------------------
$molecule
0 2
C        1.4628101094    0.1445654151   -1.1340797347
C        0.2894502819   -1.2705779331    1.1991555815
C       -1.0291855556   -1.1735757365    1.1517007316
C       -1.6067740671   -0.0059832272    0.4981993664
C       -0.7458529239    0.8333333120   -0.1132353455
N        0.6503805322    0.6073237525   -0.0381949649
H        1.9024752958   -0.8290432509   -1.2961894725
H        1.0315114217   -1.9725004577    1.5639368432
H       -1.6748641773   -1.9088817170    1.6385797579
H       -2.6663680847    0.2040368511    0.5575494085
H       -1.0626825773    1.7727618956   -0.5523774691
C        1.5307872932    1.3796587277   -1.4665114339
H        1.9345282626    2.2380243154   -1.9727833894
$end

$rem
method                b3lyp
basis                 6-31g(d)
unrestricted          true
symmetry              off
sym_ignore            true
incdft                false
incfock               0
scf_convergence       8
thresh                14
jobtype               ts
scf_guess             read
scf_algorithm         diis
max_scf_cycles        100
geom_opt_max_cycles   500
geom_opt_dmax         100
geom_opt_tol_gradient 10
geom_opt_hessian      read
$end

--------------------------------------------------------------

    2    -286.7014183506      9.70E-10 Convergence criterion met
 Total energy in the final basis set = -286.70141835
   16    -286.7028735606      7.00E-09 Convergence criterion met
 Total energy in the final basis set = -286.70287356
   16    -286.7042919551      6.01E-09 Convergence criterion met
 Total energy in the final basis set = -286.70429196
   16    -286.7055679473      5.07E-09 Convergence criterion met
 Total energy in the final basis set = -286.70556795
   16    -286.7066991194      4.32E-09 Convergence criterion met
 Total energy in the final basis set = -286.70669912
   15    -286.7076943818      8.95E-09 Convergence criterion met
 Total energy in the final basis set = -286.70769438
   15    -286.7085690235      8.12E-09 Convergence criterion met
 Total energy in the final basis set = -286.70856902
   15    -286.7093380254      8.62E-09 Convergence criterion met
   12    -286.7127323927      6.61E-09 Convergence criterion met
 Total energy in the final basis set = -286.71273239
   13    -286.7127286970      4.46E-09 Convergence criterion met
 Total energy in the final basis set = -286.71272870
   12    -286.7127325148      9.40E-09 Convergence criterion met
 Total energy in the final basis set = -286.71273251
   10    -286.7127325890      7.15E-09 Convergence criterion met
 Total energy in the final basis set = -286.71273259
   13    -286.7127286294      4.97E-09 Convergence criterion met
 Total energy in the final basis set = -286.71272863
   13    -286.7127325974      4.12E-09 Convergence criterion met
 Total energy in the final basis set = -286.71273260

             Standard Nuclear Orientation (Angstroms)
    I     Atom           X                Y                Z
 ----------------------------------------------------------------
    1      C       1.4087790899     0.1838199692    -1.4141116078
    2      C       0.2973510422    -1.3371744432     1.1613111933
    3      C      -0.9877935738    -1.0473242938     1.3577904388
    4      C      -1.5871854531    -0.0614473978     0.4659561111
    5      C      -0.7436474367     0.6066389831    -0.3458072292
    6      N       0.6454243124     0.3224971749    -0.2058117782
    7      H       1.5036915323    -0.6338171678    -2.1211301216
    8      H       1.0356461369    -1.8830589599     1.7393838374
    9      H      -1.5846844583    -1.4658486623     2.1730632436
   10      H      -2.6521776549     0.1503216944     0.4748920123
   11      H      -1.0398057870     1.3764908901    -1.0541617824
   12      C       1.6746787848     1.4011465988    -1.1079380098
   13      H       2.0459392763     2.4068975614    -1.0876864283
 ----------------------------------------------------------------

   10    -286.7127326134      5.15E-09 Convergence criterion met
 Total energy in the final basis set = -286.71273261
 Final energy is   -286.712732613397
 **  OPTIMIZATION CONVERGED  **

                    Orbital Energies (a.u.)
 --------------------------------------------------------------

 Alpha MOs
 -- Occupied --
-14.375 -10.245 -10.231 -10.201 -10.182 -10.176 -10.172  -0.955
 -0.808  -0.725  -0.671  -0.598  -0.569  -0.528  -0.512  -0.478
 -0.431  -0.400  -0.380  -0.369  -0.328  -0.287  -0.255  -0.206
 -0.153

 Beta MOs
 -- Occupied --
-14.372 -10.246 -10.226 -10.202 -10.176 -10.173 -10.169  -0.953
 -0.804  -0.718  -0.663  -0.592  -0.562  -0.523  -0.504  -0.474
 -0.426  -0.394  -0.375  -0.363  -0.322  -0.280  -0.236  -0.196

          Ground-State Mulliken Net Atomic Charges

     Atom                 Charge (a.u.)    Spin (a.u.)
  --------------------------------------------------------
      1 C                    -0.013379      -0.062567
      2 C                    -0.168720       0.780257
      3 C                    -0.146275      -0.097950
      4 C                    -0.126158       0.045403
      5 C                     0.024769      -0.020111
      6 N                    -0.365796      -0.024253
      7 H                     0.161304       0.009176
      8 H                     0.133407       0.006655
      9 H                     0.126731       0.052059
     10 H                     0.126475       0.001519
     11 H                     0.130883      -0.001508
     12 C                    -0.073843       0.322309
     13 H                     0.190601      -0.010988
  --------------------------------------------------------
  Sum of atomic charges =    -0.000000

                    Cartesian Multipole Moments
 -----------------------------------------------------------------
    Charge (ESU x 10^10)
                 0.0000
    Dipole Moment (Debye)
         X       0.5213      Y       0.9961      Z      -1.6022
       Tot       1.9573
    Quadrupole Moments (Debye-Ang)
        XX     -37.3054     XY       0.8330     YY     -37.5753
        XZ      -2.8221     YZ      -2.3738     ZZ     -38.3555

 Total job time:  477.17s(wall), 1393.25s(cpu)
        *  Thank you very much for using Q-Chem.  Have a nice day.  *
