 Q-Chem 5.0, Q-Chem, Inc., Pleasanton, CA (2017)
 Q-Chem 5.0.2 for Intel X86 EM64T Linux

User input:
--------------------------------------------------------------
$molecule
0 2
C        1.4087790899    0.1838199692   -1.4141116078
C        0.2973510422   -1.3371744432    1.1613111933
C       -0.9877935738   -1.0473242938    1.3577904388
C       -1.5871854531   -0.0614473978    0.4659561111
C       -0.7436474367    0.6066389831   -0.3458072292
N        0.6454243124    0.3224971749   -0.2058117782
H        1.5036915323   -0.6338171678   -2.1211301216
H        1.0356461369   -1.8830589599    1.7393838374
H       -1.5846844583   -1.4658486623    2.1730632436
H       -2.6521776549    0.1503216944    0.4748920123
H       -1.0398057870    1.3764908901   -1.0541617824
C        1.6746787848    1.4011465988   -1.1079380098
H        2.0459392763    2.4068975614   -1.0876864283
$end

$rem
method                b3lyp
basis                 6-31+g(d,p)
unrestricted          true
symmetry              off
sym_ignore            true
incdft                false
incfock               0
scf_convergence       8
thresh                14
jobtype               sp
scf_guess             core
scf_guess_mix         5
scf_algorithm         diis
max_scf_cycles        100
$end

--------------------------------------------------------------

             Standard Nuclear Orientation (Angstroms)
    I     Atom           X                Y                Z
 ----------------------------------------------------------------
    1      C       1.4087790899     0.1838199692    -1.4141116078
    2      C       0.2973510422    -1.3371744432     1.1613111933
    3      C      -0.9877935738    -1.0473242938     1.3577904388
    4      C      -1.5871854531    -0.0614473978     0.4659561111
    5      C      -0.7436474367     0.6066389831    -0.3458072292
    6      N       0.6454243124     0.3224971749    -0.2058117782
    7      H       1.5036915323    -0.6338171678    -2.1211301216
    8      H       1.0356461369    -1.8830589599     1.7393838374
    9      H      -1.5846844583    -1.4658486623     2.1730632436
   10      H      -2.6521776549     0.1503216944     0.4748920123
   11      H      -1.0398057870     1.3764908901    -1.0541617824
   12      C       1.6746787848     1.4011465988    -1.1079380098
   13      H       2.0459392763     2.4068975614    -1.0876864283
 ----------------------------------------------------------------

   24    -286.7391181803      6.25E-09 Convergence criterion met
 Total energy in the final basis set = -286.73911818

                    Orbital Energies (a.u.)
 --------------------------------------------------------------

 Alpha MOs
 -- Occupied --
-14.389 -10.257 -10.244 -10.215 -10.197 -10.190 -10.186  -0.969
 -0.822  -0.739  -0.684  -0.607  -0.579  -0.538  -0.523  -0.489
 -0.443  -0.412  -0.392  -0.381  -0.341  -0.301  -0.268  -0.221
 -0.167

 Beta MOs
 -- Occupied --
-14.387 -10.258 -10.239 -10.216 -10.189 -10.187 -10.185  -0.967
 -0.818  -0.732  -0.676  -0.601  -0.572  -0.533  -0.515  -0.485
 -0.438  -0.406  -0.387  -0.375  -0.335  -0.294  -0.250  -0.211

          Ground-State Mulliken Net Atomic Charges

     Atom                 Charge (a.u.)    Spin (a.u.)
  --------------------------------------------------------
      1 C                    -0.025545      -0.087655
      2 C                    -0.349497       0.849844
      3 C                    -0.131396      -0.142185
      4 C                    -0.097592       0.097911
      5 C                    -0.159234      -0.073640
      6 N                    -0.033898      -0.033029
      7 H                     0.148301       0.008328
      8 H                     0.128230       0.009097
      9 H                     0.129880       0.049448
     10 H                     0.123330       0.001367
     11 H                     0.132299      -0.000296
     12 C                    -0.043419       0.331011
     13 H                     0.178543      -0.010202
  --------------------------------------------------------
  Sum of atomic charges =     0.000000

                    Cartesian Multipole Moments
 -----------------------------------------------------------------
    Charge (ESU x 10^10)
                 0.0000
    Dipole Moment (Debye)
         X       0.4843      Y       1.0294      Z      -1.5035
       Tot       1.8854
    Quadrupole Moments (Debye-Ang)
        XX     -38.7320     XY       0.6921     YY     -39.5460
        XZ      -2.8985     YZ      -2.3452     ZZ     -40.3029

 Total job time:  47.37s(wall), 116.76s(cpu)
        *  Thank you very much for using Q-Chem.  Have a nice day.  *
