 Q-Chem 5.0, Q-Chem, Inc., Pleasanton, CA (2017)
 Q-Chem 5.0.2 for Intel X86 EM64T Linux

User input:
--------------------------------------------------------------
$molecule
0 2
C        1.4628101094    0.1445654151   -1.1340797347
C        0.2894502819   -1.2705779331    1.1991555815
C       -1.0291855556   -1.1735757365    1.1517007316
C       -1.6067740671   -0.0059832272    0.4981993664
C       -0.7458529239    0.8333333120   -0.1132353455
N        0.6503805322    0.6073237525   -0.0381949649
H        1.9024752958   -0.8290432509   -1.2961894725
H        1.0315114217   -1.9725004577    1.5639368432
H       -1.6748641773   -1.9088817170    1.6385797579
H       -2.6663680847    0.2040368511    0.5575494085
H       -1.0626825773    1.7727618956   -0.5523774691
C        1.5307872932    1.3796587277   -1.4665114339
H        1.9345282626    2.2380243154   -1.9727833894
$end

$rem
method                b3lyp
basis                 6-31g(d)
unrestricted          true
symmetry              off
sym_ignore            true
incdft                false
incfock               0
scf_convergence       8
thresh                14
jobtype               freq
scf_guess             read
scf_algorithm         diis
max_scf_cycles        100
$end

--------------------------------------------------------------

             Standard Nuclear Orientation (Angstroms)
    I     Atom           X                Y                Z
 ----------------------------------------------------------------
    1      C       1.4628101094     0.1445654151    -1.1340797347
    2      C       0.2894502819    -1.2705779331     1.1991555815
    3      C      -1.0291855556    -1.1735757365     1.1517007316
    4      C      -1.6067740671    -0.0059832272     0.4981993664
    5      C      -0.7458529239     0.8333333120    -0.1132353455
    6      N       0.6503805322     0.6073237525    -0.0381949649
    7      H       1.9024752958    -0.8290432509    -1.2961894725
    8      H       1.0315114217    -1.9725004577     1.5639368432
    9      H      -1.6748641773    -1.9088817170     1.6385797579
   10      H      -2.6663680847     0.2040368511     0.5575494085
   11      H      -1.0626825773     1.7727618956    -0.5523774691
   12      C       1.5307872932     1.3796587277    -1.4665114339
   13      H       1.9345282626     2.2380243154    -1.9727833894
 ----------------------------------------------------------------

    2    -286.7014183507      2.63E-09 Convergence criterion met
 Total energy in the final basis set = -286.70141835

                    Orbital Energies (a.u.)
 --------------------------------------------------------------

 Alpha MOs
 -- Occupied --
-14.369 -10.238 -10.221 -10.207 -10.196 -10.185 -10.177  -0.933
 -0.809  -0.736  -0.678  -0.598  -0.569  -0.522  -0.511  -0.482
 -0.439  -0.403  -0.385  -0.378  -0.305  -0.290  -0.244  -0.205
 -0.182

 Beta MOs
 -- Occupied --
-14.370 -10.239 -10.214 -10.208 -10.187 -10.183 -10.176  -0.935
 -0.804  -0.730  -0.670  -0.589  -0.561  -0.518  -0.505  -0.478
 -0.434  -0.399  -0.383  -0.373  -0.303  -0.275  -0.238  -0.196

          Ground-State Mulliken Net Atomic Charges

     Atom                 Charge (a.u.)    Spin (a.u.)
  --------------------------------------------------------
      1 C                     0.030509      -0.067272
      2 C                    -0.184942       0.823433
      3 C                    -0.137088      -0.132062
      4 C                    -0.119026       0.059471
      5 C                     0.029767      -0.037460
      6 N                    -0.385844      -0.166547
      7 H                     0.155695       0.017234
      8 H                     0.147362      -0.000487
      9 H                     0.137499       0.062000
     10 H                     0.129014       0.000965
     11 H                     0.144877      -0.008800
     12 C                    -0.133426       0.453281
     13 H                     0.185604      -0.003757
  --------------------------------------------------------
  Sum of atomic charges =     0.000000

                    Cartesian Multipole Moments
 -----------------------------------------------------------------
    Charge (ESU x 10^10)
                 0.0000
    Dipole Moment (Debye)
         X       0.3404      Y      -0.1948      Z      -1.4436
       Tot       1.4959
    Quadrupole Moments (Debye-Ang)
        XX     -36.4869     XY      -0.6089     YY     -36.2219
        XZ      -3.6436     YZ      -4.4433     ZZ     -40.4064

 Frequency:      -794.43                 -77.61                 128.04
 Force Cnst:      2.1477                 0.0113                 0.0316
 Red. Mass:       5.7758                 3.1972                 3.2759
 IR Intens:      118.905                  3.431                  4.920
 Frequency:       203.54                 275.26                 342.09
 Force Cnst:      0.0871                 0.2142                 0.2022
 Red. Mass:       3.5689                 4.7991                 2.9326
 IR Intens:        8.223                  1.099                  4.657
 Frequency:       402.92                 492.21                 517.68
 Force Cnst:      0.1207                 0.3951                 0.3310
 Red. Mass:       1.2615                 2.7678                 2.0960
 IR Intens:       61.638                 11.623                 26.381
 Frequency:       613.89                 634.01                 726.27
 Force Cnst:      0.2852                 0.3025                 0.5970
 Red. Mass:       1.2845                 1.2771                 1.9209
 IR Intens:       88.141                 37.915                 26.534
 Frequency:       738.24                 800.16                 836.54
 Force Cnst:      0.5165                 0.6349                 0.8028
 Red. Mass:       1.6085                 1.6830                 1.9471
 IR Intens:        4.861                 15.958                  6.797
 Frequency:       855.35                 894.69                 916.13
 Force Cnst:      0.7194                 0.7375                 1.1322
 Red. Mass:       1.6690                 1.5638                 2.2896
 IR Intens:        0.421                  3.389                  6.155
 Frequency:      1021.61                1110.48                1151.31
 Force Cnst:      1.3183                 1.0677                 1.2029
 Red. Mass:       2.1439                 1.4696                 1.5403
 IR Intens:        0.909                 37.816                  4.292
 Frequency:      1242.31                1250.25                1401.90
 Force Cnst:      1.2927                 1.4772                 1.8792
 Red. Mass:       1.4217                 1.6039                 1.6229
 IR Intens:       22.758                 43.043                  9.539
 Frequency:      1591.76                1669.34                1775.68
 Force Cnst:     11.8073                 8.9223                 9.7582
 Red. Mass:       7.9094                 5.4342                 5.2528
 IR Intens:       29.403                  8.390                 35.929
 Frequency:      3106.41                3215.62                3242.95
 Force Cnst:      6.1673                 6.6289                 6.8415
 Red. Mass:       1.0847                 1.0881                 1.1041
 IR Intens:       33.265                  2.632                  1.850
 Frequency:      3251.80                3258.90                3365.66
 Force Cnst:      6.8326                 6.8459                 7.5622
 Red. Mass:       1.0967                 1.0940                 1.1331
 IR Intens:       18.610                 18.515                 32.243

 STANDARD THERMODYNAMIC QUANTITIES AT   298.15 K  AND     1.00 ATM

   This Molecule has  2 Imaginary Frequencies
   Zero point vibrational energy:       58.660 kcal/mol

   Atom    1 Element C  Has Mass   12.00000
   Atom    2 Element C  Has Mass   12.00000
   Atom    3 Element C  Has Mass   12.00000
   Atom    4 Element C  Has Mass   12.00000
   Atom    5 Element C  Has Mass   12.00000
   Atom    6 Element N  Has Mass   14.00307
   Atom    7 Element H  Has Mass    1.00783
   Atom    8 Element H  Has Mass    1.00783
   Atom    9 Element H  Has Mass    1.00783
   Atom   10 Element H  Has Mass    1.00783
   Atom   11 Element H  Has Mass    1.00783
   Atom   12 Element C  Has Mass   12.00000
   Atom   13 Element H  Has Mass    1.00783
   Molecular Mass:    92.050050 amu
   Principal axes and moments of inertia in amu*Bohr^2:
                             1           2           3
    Eigenvalues --      285.96259   839.56556  1071.41943
          X               0.63982     0.70756     0.29996
          Y               0.48362    -0.67404     0.55837
          Z              -0.59727     0.21219     0.77346
   Rotational Symmetry Number is   1
   The Molecule is an Asymmetric Top
   Translational Enthalpy:        0.889 kcal/mol
   Rotational Enthalpy:           0.889 kcal/mol
   Vibrational Enthalpy:         61.007 kcal/mol
   gas constant (RT):             0.592 kcal/mol
   Translational Entropy:        39.471  cal/mol.K
   Rotational Entropy:           27.044  cal/mol.K
   Vibrational Entropy:          12.574  cal/mol.K

   Total Enthalpy:               63.376 kcal/mol
   Total Entropy:                79.090  cal/mol.K

 Total job time:  253.33s(wall), 247.24s(cpu)
        *  Thank you very much for using Q-Chem.  Have a nice day.  *
