 Q-Chem 5.0, Q-Chem, Inc., Pleasanton, CA (2017)
 Q-Chem 5.0.2 for Intel X86 EM64T Linux

User input:
--------------------------------------------------------------
$molecule
0 2
C        1.4087790899    0.1838199692   -1.4141116078
C        0.2973510422   -1.3371744432    1.1613111933
C       -0.9877935738   -1.0473242938    1.3577904388
C       -1.5871854531   -0.0614473978    0.4659561111
C       -0.7436474367    0.6066389831   -0.3458072292
N        0.6454243124    0.3224971749   -0.2058117782
H        1.5036915323   -0.6338171678   -2.1211301216
H        1.0356461369   -1.8830589599    1.7393838374
H       -1.5846844583   -1.4658486623    2.1730632436
H       -2.6521776549    0.1503216944    0.4748920123
H       -1.0398057870    1.3764908901   -1.0541617824
C        1.6746787848    1.4011465988   -1.1079380098
H        2.0459392763    2.4068975614   -1.0876864283
$end

$rem
method                b3lyp
basis                 6-31+g(d,p)
unrestricted          true
symmetry              off
sym_ignore            true
incdft                false
incfock               0
scf_convergence       8
thresh                14
jobtype               ts
scf_guess             read
scf_algorithm         diis
max_scf_cycles        100
geom_opt_max_cycles   500
geom_opt_dmax         100
geom_opt_tol_gradient 10
geom_opt_hessian      read
$end

--------------------------------------------------------------

    2    -286.7391181803      6.81E-10 Convergence criterion met
 Total energy in the final basis set = -286.73911818
   15    -286.7391900386      5.68E-09 Convergence criterion met
 Total energy in the final basis set = -286.73919004
   12    -286.7391919818      8.27E-09 Convergence criterion met
 Total energy in the final basis set = -286.73919198

             Standard Nuclear Orientation (Angstroms)
    I     Atom           X                Y                Z
 ----------------------------------------------------------------
    1      C       1.4062806294     0.1833987214    -1.4265338516
    2      C       0.2977407986    -1.3390045594     1.1655080232
    3      C      -0.9871515544    -1.0392284599     1.3637000837
    4      C      -1.5903977586    -0.0613291125     0.4655901108
    5      C      -0.7485300629     0.5991679739    -0.3586620396
    6      N       0.6382571440     0.3122993752    -0.2238271790
    7      H       1.5107161168    -0.6298491147    -2.1358860266
    8      H       1.0438120471    -1.8796449871     1.7367496605
    9      H      -1.5767312762    -1.4490794233     2.1878202514
   10      H      -2.6539191304     0.1536280817     0.4792451170
   11      H      -1.0488338878     1.3667136627    -1.0675914364
   12      C       1.6728320659     1.4021005956    -1.1182617280
   13      H       2.0521406796     2.3999691935    -1.0321011062
 ----------------------------------------------------------------

   10    -286.7391920298      9.20E-09 Convergence criterion met
 Total energy in the final basis set = -286.73919203
 Final energy is   -286.739192029811
 **  OPTIMIZATION CONVERGED  **

                    Orbital Energies (a.u.)
 --------------------------------------------------------------

 Alpha MOs
 -- Occupied --
-14.388 -10.259 -10.245 -10.216 -10.197 -10.190 -10.187  -0.969
 -0.822  -0.739  -0.684  -0.608  -0.579  -0.538  -0.523  -0.490
 -0.445  -0.412  -0.392  -0.381  -0.341  -0.300  -0.268  -0.220
 -0.166

 Beta MOs
 -- Occupied --
-14.386 -10.259 -10.240 -10.216 -10.189 -10.188 -10.185  -0.967
 -0.818  -0.732  -0.676  -0.602  -0.572  -0.533  -0.515  -0.486
 -0.440  -0.405  -0.387  -0.375  -0.335  -0.293  -0.250  -0.210

          Ground-State Mulliken Net Atomic Charges

     Atom                 Charge (a.u.)    Spin (a.u.)
  --------------------------------------------------------
      1 C                    -0.027992      -0.084309
      2 C                    -0.341223       0.854826
      3 C                    -0.140494      -0.141798
      4 C                    -0.088550       0.096052
      5 C                    -0.167316      -0.071857
      6 N                    -0.035937      -0.034710
      7 H                     0.148396       0.007988
      8 H                     0.128623       0.008173
      9 H                     0.129771       0.049258
     10 H                     0.123307       0.001232
     11 H                     0.132429      -0.000129
     12 C                    -0.042115       0.327689
     13 H                     0.181102      -0.012416
  --------------------------------------------------------
  Sum of atomic charges =    -0.000000

                    Cartesian Multipole Moments
 -----------------------------------------------------------------
    Charge (ESU x 10^10)
                -0.0000
    Dipole Moment (Debye)
         X       0.5461      Y       1.0498      Z      -1.4486
       Tot       1.8705
    Quadrupole Moments (Debye-Ang)
        XX     -38.6191     XY       0.6966     YY     -39.6167
        XZ      -2.7806     YZ      -2.1212     ZZ     -40.4019

 Total job time:  71.79s(wall), 250.92s(cpu)
        *  Thank you very much for using Q-Chem.  Have a nice day.  *
