 Q-Chem 5.0, Q-Chem, Inc., Pleasanton, CA (2017)
 Q-Chem 5.0.2 for Intel X86 EM64T Linux

User input:
--------------------------------------------------------------
$molecule
0 2
C        1.4628101094    0.1445654151   -1.1340797347
C        0.2894502819   -1.2705779331    1.1991555815
C       -1.0291855556   -1.1735757365    1.1517007316
C       -1.6067740671   -0.0059832272    0.4981993664
C       -0.7458529239    0.8333333120   -0.1132353455
N        0.6503805322    0.6073237525   -0.0381949649
H        1.9024752958   -0.8290432509   -1.2961894725
H        1.0315114217   -1.9725004577    1.5639368432
H       -1.6748641773   -1.9088817170    1.6385797579
H       -2.6663680847    0.2040368511    0.5575494085
H       -1.0626825773    1.7727618956   -0.5523774691
C        1.5307872932    1.3796587277   -1.4665114339
H        1.9345282626    2.2380243154   -1.9727833894
$end

$rem
method                b3lyp
basis                 6-31g(d)
unrestricted          true
symmetry              off
sym_ignore            true
incdft                false
incfock               0
scf_convergence       6
thresh                14
jobtype               sp
scf_guess             read
scf_algorithm         diis
max_scf_cycles        100
stability_analysis    true
max_cis_cycles        100
cis_n_roots           4
$end

--------------------------------------------------------------

             Standard Nuclear Orientation (Angstroms)
    I     Atom           X                Y                Z
 ----------------------------------------------------------------
    1      C       1.4628101094     0.1445654151    -1.1340797347
    2      C       0.2894502819    -1.2705779331     1.1991555815
    3      C      -1.0291855556    -1.1735757365     1.1517007316
    4      C      -1.6067740671    -0.0059832272     0.4981993664
    5      C      -0.7458529239     0.8333333120    -0.1132353455
    6      N       0.6503805322     0.6073237525    -0.0381949649
    7      H       1.9024752958    -0.8290432509    -1.2961894725
    8      H       1.0315114217    -1.9725004577     1.5639368432
    9      H      -1.6748641773    -1.9088817170     1.6385797579
   10      H      -2.6663680847     0.2040368511     0.5575494085
   11      H      -1.0626825773     1.7727618956    -0.5523774691
   12      C       1.5307872932     1.3796587277    -1.4665114339
   13      H       1.9345282626     2.2380243154    -1.9727833894
 ----------------------------------------------------------------

    2    -286.7014183506      4.59E-09 Convergence criterion met
 Total energy in the final basis set = -286.70141835

         TDDFT/TDA Excitation Energies
 ---------------------------------------------------

 Excited state   1: excitation energy (eV) =    2.1110
 Total energy for state  1:                  -286.62383883 au
    <S**2>     :  0.8827
    Trans. Mom.: -0.0474 X  -0.0204 Y  -0.0179 Z
    Strength   :     0.0001540731
    D( 24) --> S(  1) amplitude =  0.9791 beta

 Excited state   2: excitation energy (eV) =    2.8820
 Total energy for state  2:                  -286.59550567 au
    <S**2>     :  1.5368
    Trans. Mom.: -0.1292 X  -0.1436 Y   0.1570 Z
    Strength   :     0.0043732553
    D( 23) --> V(  1) amplitude =  0.1947 alpha
    D( 24) --> V(  1) amplitude = -0.2230 alpha
    D( 24) --> V(  2) amplitude =  0.1800 alpha
    S(  1) --> V(  1) amplitude =  0.4018 alpha
    S(  1) --> V(  2) amplitude = -0.4195 alpha
    D( 23) --> S(  1) amplitude =  0.6319 beta
    D( 24) --> V(  1) amplitude =  0.1756 beta
    D( 24) --> V(  2) amplitude = -0.2567 beta

 Excited state   3: excitation energy (eV) =    2.9831
 Total energy for state  3:                  -286.59178984 au
    <S**2>     :  0.9203
    Trans. Mom.: -0.1521 X  -0.2140 Y   0.2399 Z
    Strength   :     0.0092432839
    S(  1) --> V(  1) amplitude =  0.8127 alpha
    S(  1) --> V(  2) amplitude =  0.2644 alpha
    D( 22) --> S(  1) amplitude =  0.3053 beta
    D( 23) --> S(  1) amplitude = -0.3043 beta

 Excited state   4: excitation energy (eV) =    3.0614
 Total energy for state  4:                  -286.58891331 au
    <S**2>     :  2.6231
    Trans. Mom.:  0.0097 X   0.0182 Y   0.0190 Z
    Strength   :     0.0000590067
    D( 23) --> V(  2) amplitude = -0.1517 alpha
    D( 24) --> V(  1) amplitude = -0.3579 alpha
    D( 24) --> V(  2) amplitude = -0.4955 alpha
    S(  1) --> V(  2) amplitude =  0.1712 alpha
    D( 23) --> S(  1) amplitude =  0.2560 beta
    D( 24) --> V(  1) amplitude = -0.6263 beta

 ---------------------------------------------------

                    Orbital Energies (a.u.)
 --------------------------------------------------------------

 Alpha MOs
 -- Occupied --
-14.369 -10.238 -10.221 -10.207 -10.196 -10.185 -10.177  -0.933
 -0.809  -0.736  -0.678  -0.598  -0.569  -0.522  -0.511  -0.482
 -0.439  -0.403  -0.385  -0.378  -0.305  -0.290  -0.244  -0.205
 -0.182

 Beta MOs
 -- Occupied --
-14.370 -10.239 -10.214 -10.208 -10.187 -10.183 -10.176  -0.935
 -0.804  -0.730  -0.670  -0.589  -0.561  -0.518  -0.505  -0.478
 -0.434  -0.399  -0.383  -0.373  -0.303  -0.275  -0.238  -0.196

          Ground-State Mulliken Net Atomic Charges

     Atom                 Charge (a.u.)    Spin (a.u.)
  --------------------------------------------------------
      1 C                     0.030509      -0.067269
      2 C                    -0.184942       0.823429
      3 C                    -0.137088      -0.132059
      4 C                    -0.119026       0.059467
      5 C                     0.029767      -0.037455
      6 N                    -0.385844      -0.166548
      7 H                     0.155695       0.017234
      8 H                     0.147362      -0.000487
      9 H                     0.137499       0.062000
     10 H                     0.129014       0.000965
     11 H                     0.144877      -0.008800
     12 C                    -0.133426       0.453280
     13 H                     0.185604      -0.003756
  --------------------------------------------------------
  Sum of atomic charges =     0.000000

                    Cartesian Multipole Moments
 -----------------------------------------------------------------
    Charge (ESU x 10^10)
                 0.0000
    Dipole Moment (Debye)
         X       0.3404      Y      -0.1948      Z      -1.4436
       Tot       1.4959
    Quadrupole Moments (Debye-Ang)
        XX     -36.4869     XY      -0.6089     YY     -36.2219
        XZ      -3.6436     YZ      -4.4433     ZZ     -40.4064

 Total job time:  96.31s(wall), 89.40s(cpu)
        *  Thank you very much for using Q-Chem.  Have a nice day.  *
