 Q-Chem 5.0, Q-Chem, Inc., Pleasanton, CA (2017)
 Q-Chem 5.0.2 for Intel X86 EM64T Linux

User input:
--------------------------------------------------------------
$molecule
0 2
C        1.4062806294    0.1833987214   -1.4265338516
C        0.2977407986   -1.3390045594    1.1655080232
C       -0.9871515544   -1.0392284599    1.3637000837
C       -1.5903977586   -0.0613291125    0.4655901108
C       -0.7485300629    0.5991679739   -0.3586620396
N        0.6382571440    0.3122993752   -0.2238271790
H        1.5107161168   -0.6298491147   -2.1358860266
H        1.0438120471   -1.8796449871    1.7367496605
H       -1.5767312762   -1.4490794233    2.1878202514
H       -2.6539191304    0.1536280817    0.4792451170
H       -1.0488338878    1.3667136627   -1.0675914364
C        1.6728320659    1.4021005956   -1.1182617280
H        2.0521406796    2.3999691935   -1.0321011062
$end

$rem
method                b3lyp
basis                 6-31+g(d,p)
unrestricted          true
symmetry              off
sym_ignore            true
incdft                false
incfock               0
scf_convergence       8
thresh                14
jobtype               freq
scf_guess             read
scf_algorithm         diis
max_scf_cycles        100
$end

--------------------------------------------------------------

             Standard Nuclear Orientation (Angstroms)
    I     Atom           X                Y                Z
 ----------------------------------------------------------------
    1      C       1.4062806294     0.1833987214    -1.4265338516
    2      C       0.2977407986    -1.3390045594     1.1655080232
    3      C      -0.9871515544    -1.0392284599     1.3637000837
    4      C      -1.5903977586    -0.0613291125     0.4655901108
    5      C      -0.7485300629     0.5991679739    -0.3586620396
    6      N       0.6382571440     0.3122993752    -0.2238271790
    7      H       1.5107161168    -0.6298491147    -2.1358860266
    8      H       1.0438120471    -1.8796449871     1.7367496605
    9      H      -1.5767312762    -1.4490794233     2.1878202514
   10      H      -2.6539191304     0.1536280817     0.4792451170
   11      H      -1.0488338878     1.3667136627    -1.0675914364
   12      C       1.6728320659     1.4021005956    -1.1182617280
   13      H       2.0521406796     2.3999691935    -1.0321011062
 ----------------------------------------------------------------

    2    -286.7391920298      1.59E-09 Convergence criterion met
 Total energy in the final basis set = -286.73919203

                    Orbital Energies (a.u.)
 --------------------------------------------------------------

 Alpha MOs
 -- Occupied --
-14.388 -10.259 -10.245 -10.216 -10.197 -10.190 -10.187  -0.969
 -0.822  -0.739  -0.684  -0.608  -0.579  -0.538  -0.523  -0.490
 -0.445  -0.412  -0.392  -0.381  -0.341  -0.300  -0.268  -0.220
 -0.166

 Beta MOs
 -- Occupied --
-14.386 -10.259 -10.240 -10.216 -10.189 -10.188 -10.185  -0.967
 -0.818  -0.732  -0.676  -0.602  -0.572  -0.533  -0.515  -0.486
 -0.440  -0.405  -0.387  -0.375  -0.335  -0.293  -0.250  -0.210

          Ground-State Mulliken Net Atomic Charges

     Atom                 Charge (a.u.)    Spin (a.u.)
  --------------------------------------------------------
      1 C                    -0.027992      -0.084307
      2 C                    -0.341223       0.854837
      3 C                    -0.140494      -0.141807
      4 C                    -0.088550       0.096060
      5 C                    -0.167317      -0.071865
      6 N                    -0.035937      -0.034708
      7 H                     0.148396       0.007988
      8 H                     0.128623       0.008172
      9 H                     0.129771       0.049259
     10 H                     0.123307       0.001232
     11 H                     0.132429      -0.000129
     12 C                    -0.042116       0.327684
     13 H                     0.181102      -0.012415
  --------------------------------------------------------
  Sum of atomic charges =    -0.000000

                    Cartesian Multipole Moments
 -----------------------------------------------------------------
    Charge (ESU x 10^10)
                -0.0000
    Dipole Moment (Debye)
         X       0.5461      Y       1.0498      Z      -1.4486
       Tot       1.8705
    Quadrupole Moments (Debye-Ang)
        XX     -38.6191     XY       0.6966     YY     -39.6167
        XZ      -2.7806     YZ      -2.1212     ZZ     -40.4019

 Frequency:      -631.63                 104.21                 136.33
 Force Cnst:      1.4760                 0.0209                 0.0624
 Red. Mass:       6.2794                 3.2619                 5.6951
 IR Intens:       73.246                  5.562                  6.687
 Frequency:       227.97                 316.69                 355.75
 Force Cnst:      0.0831                 0.1790                 0.1567
 Red. Mass:       2.7123                 3.0295                 2.1018
 IR Intens:        2.916                 11.088                 13.817
 Frequency:       398.43                 500.59                 527.94
 Force Cnst:      0.1605                 0.4098                 0.3405
 Red. Mass:       1.7155                 2.7754                 2.0735
 IR Intens:       23.910                 27.384                 31.960
 Frequency:       644.08                 647.25                 728.04
 Force Cnst:      0.3358                 0.3177                 0.5106
 Red. Mass:       1.3738                 1.2869                 1.6349
 IR Intens:       26.612                 49.489                 27.482
 Frequency:       744.15                 812.82                 855.93
 Force Cnst:      0.5948                 0.6251                 0.8338
 Red. Mass:       1.8229                 1.6058                 1.9318
 IR Intens:       12.583                 17.483                  6.407
 Frequency:       870.03                 922.27                 958.70
 Force Cnst:      0.6706                 0.6677                 1.7829
 Red. Mass:       1.5037                 1.3323                 3.2924
 IR Intens:        2.197                  0.314                  3.313
 Frequency:      1020.46                1094.17                1157.65
 Force Cnst:      1.2648                 1.0630                 1.1913
 Red. Mass:       2.0615                 1.5070                 1.5087
 IR Intens:        1.408                 30.663                  6.468
 Frequency:      1211.94                1234.37                1389.84
 Force Cnst:      1.6059                 1.1983                 1.9314
 Red. Mass:       1.8557                 1.3348                 1.6970
 IR Intens:       25.166                 38.672                  9.691
 Frequency:      1561.97                1645.62                1751.37
 Force Cnst:     11.1412                 8.3344                 8.9630
 Red. Mass:       7.7506                 5.2235                 4.9596
 IR Intens:        9.173                  5.474                 49.816
 Frequency:      3098.15                3177.08                3213.04
 Force Cnst:      6.1390                 6.4759                 6.6746
 Red. Mass:       1.0855                 1.0889                 1.0973
 IR Intens:       37.260                  2.880                 19.370
 Frequency:      3218.93                3228.53                3405.22
 Force Cnst:      6.7352                 6.7679                 7.7319
 Red. Mass:       1.1033                 1.1020                 1.1317
 IR Intens:        9.424                  5.022                 79.593

 STANDARD THERMODYNAMIC QUANTITIES AT   298.15 K  AND     1.00 ATM

   This Molecule has  1 Imaginary Frequencies
   Zero point vibrational energy:       58.841 kcal/mol

   Atom    1 Element C  Has Mass   12.00000
   Atom    2 Element C  Has Mass   12.00000
   Atom    3 Element C  Has Mass   12.00000
   Atom    4 Element C  Has Mass   12.00000
   Atom    5 Element C  Has Mass   12.00000
   Atom    6 Element N  Has Mass   14.00307
   Atom    7 Element H  Has Mass    1.00783
   Atom    8 Element H  Has Mass    1.00783
   Atom    9 Element H  Has Mass    1.00783
   Atom   10 Element H  Has Mass    1.00783
   Atom   11 Element H  Has Mass    1.00783
   Atom   12 Element C  Has Mass   12.00000
   Atom   13 Element H  Has Mass    1.00783
   Molecular Mass:    92.050050 amu
   Principal axes and moments of inertia in amu*Bohr^2:
                             1           2           3
    Eigenvalues --      279.07846   857.27330  1049.68388
          X               0.64504     0.72638     0.23725
          Y               0.45848    -0.61628     0.64031
          Z              -0.61132     0.30425     0.73056
   Rotational Symmetry Number is   1
   The Molecule is an Asymmetric Top
   Translational Enthalpy:        0.889 kcal/mol
   Rotational Enthalpy:           0.889 kcal/mol
   Vibrational Enthalpy:         61.535 kcal/mol
   gas constant (RT):             0.592 kcal/mol
   Translational Entropy:        39.471  cal/mol.K
   Rotational Entropy:           27.020  cal/mol.K
   Vibrational Entropy:          15.167  cal/mol.K

   Total Enthalpy:               63.905 kcal/mol
   Total Entropy:                81.658  cal/mol.K

 Total job time:  526.40s(wall), 520.73s(cpu)
        *  Thank you very much for using Q-Chem.  Have a nice day.  *
