 Q-Chem 5.0, Q-Chem, Inc., Pleasanton, CA (2017)
 Q-Chem 5.0.2 for Intel X86 EM64T Linux

User input:
--------------------------------------------------------------
$molecule
0 2
C        1.5871009538    0.3755264582   -0.3116244312
C        0.7821350691   -0.8577647211   -0.0688524155
C       -0.5626290120   -0.5793790896   -0.6572543254
C       -0.8327764020    0.7412134938    0.9847469708
C       -0.5271697749    0.9883524455   -0.4982458957
N        0.8917849901    1.4119936331   -0.5985757953
H        2.6718718654    0.4221695134   -0.2212875333
H        1.2116614490   -1.8546572397   -0.0957778496
H       -1.1227289481   -1.1920031248   -1.3577921109
H       -1.7095061515    1.1068612456    1.5072487067
H       -1.1953502009    1.6215094683   -1.0817421650
C       -0.4585775688   -0.6819958159    0.8723179200
H       -0.7358162694   -1.5018262667    1.5268389245
$end

$rem
method                b3lyp
basis                 6-31g(d)
unrestricted          true
symmetry              off
sym_ignore            true
incdft                false
incfock               0
scf_convergence       8
thresh                14
jobtype               opt
scf_guess             read
scf_algorithm         diis
max_scf_cycles        100
geom_opt_tol_gradient 600
geom_opt_tol_displacement 2400
geom_opt_tol_energy   200
geom_opt_max_cycles   100
$end

--------------------------------------------------------------

    2    -286.8364833336      1.66E-09 Convergence criterion met
 Total energy in the final basis set = -286.83648333

             Standard Nuclear Orientation (Angstroms)
    I     Atom           X                Y                Z
 ----------------------------------------------------------------
    1      C       1.5864981599     0.3755692454    -0.3105593571
    2      C       0.7818282718    -0.8578429923    -0.0689088173
    3      C      -0.5628310060    -0.5793266627    -0.6570390447
    4      C      -0.8333392689     0.7407865681     0.9837616155
    5      C      -0.5266149597     0.9885518364    -0.4986863208
    6      N       0.8921208431     1.4121371927    -0.5983507280
    7      H       2.6712426801     0.4222130786    -0.2208579206
    8      H       1.2119386361    -1.8543686661    -0.0971750497
    9      H      -1.1234783898    -1.1926219124    -1.3566556032
   10      H      -1.7092541905     1.1068876825     1.5072670844
   11      H      -1.1945673454     1.6218180114    -1.0821961431
   12      C      -0.4586167986    -0.6819123472     0.8723453406
   13      H      -0.7349266323    -1.5018910342     1.5270549443
 ----------------------------------------------------------------

   10    -286.8364852345      2.57E-09 Convergence criterion met
 Total energy in the final basis set = -286.83648523
 Final energy is   -286.836485234477
 **  OPTIMIZATION CONVERGED  **

                    Orbital Energies (a.u.)
 --------------------------------------------------------------

 Alpha MOs
 -- Occupied --
-14.317 -10.220 -10.220 -10.215 -10.212 -10.211 -10.194  -0.964
 -0.858  -0.746  -0.657  -0.608  -0.574  -0.540  -0.512  -0.463
 -0.429  -0.412  -0.388  -0.366  -0.329  -0.315  -0.266  -0.256
 -0.174

 Beta MOs
 -- Occupied --
-14.317 -10.221 -10.220 -10.216 -10.211 -10.210 -10.181  -0.961
 -0.854  -0.737  -0.646  -0.602  -0.571  -0.538  -0.501  -0.461
 -0.425  -0.406  -0.384  -0.362  -0.317  -0.303  -0.263  -0.254

          Ground-State Mulliken Net Atomic Charges

     Atom                 Charge (a.u.)    Spin (a.u.)
  --------------------------------------------------------
      1 C                     0.096657       0.006696
      2 C                    -0.192591       0.036733
      3 C                    -0.106734       0.107696
      4 C                    -0.071185       0.952346
      5 C                    -0.099783      -0.043412
      6 N                    -0.337296       0.012632
      7 H                     0.143792       0.003953
      8 H                     0.148713       0.001430
      9 H                     0.149514       0.008572
     10 H                     0.139470      -0.039466
     11 H                     0.141865       0.005425
     12 C                    -0.162008      -0.052973
     13 H                     0.149585       0.000369
  --------------------------------------------------------
  Sum of atomic charges =     0.000000

                    Cartesian Multipole Moments
 -----------------------------------------------------------------
    Charge (ESU x 10^10)
                -0.0000
    Dipole Moment (Debye)
         X      -0.9849      Y      -2.6545      Z       0.1406
       Tot       2.8348
    Quadrupole Moments (Debye-Ang)
        XX     -37.4439     XY      -3.3542     YY     -42.7423
        XZ       0.6099     YZ       0.5923     ZZ     -41.0822

 Total job time:  55.96s(wall), 50.10s(cpu)
        *  Thank you very much for using Q-Chem.  Have a nice day.  *
