 Q-Chem 5.0, Q-Chem, Inc., Pleasanton, CA (2017)
 Q-Chem 5.0.2 for Intel X86 EM64T Linux

User input:
--------------------------------------------------------------
$molecule
0 2
C        0.4729087708   -0.2303895883    0.1793572147
C        0.3730492992   -1.3472492634   -0.8623886688
C        0.8418463950   -2.5620517549   -0.7065553931
C       -1.0856627858    1.4328634546    0.5215393760
C        0.0914094518    1.9072142316   -0.2227817410
N        0.9895674061    1.0045942025   -0.4334661277
H        1.1773217558   -0.5382026949    0.9633573050
H       -0.1548068316   -1.0657955772   -1.7749910916
H        1.3869461376   -3.1254941125    0.0415417729
H       -1.9427742959    2.0339510522    0.8031192887
H        0.2285314682    2.9275878305   -0.5803483049
C       -0.8671346670    0.1299973599    0.7748597666
H       -1.5112021045   -0.5670251402    1.2967566035
$end

$rem
method                b3lyp
basis                 6-31g(d)
unrestricted          true
symmetry              off
sym_ignore            true
incdft                false
incfock               0
scf_convergence       8
thresh                14
jobtype               opt
scf_guess             read
scf_algorithm         diis
max_scf_cycles        100
geom_opt_tol_gradient 600
geom_opt_tol_displacement 2400
geom_opt_tol_energy   200
geom_opt_max_cycles   100
$end

--------------------------------------------------------------

    2    -286.8505190740      2.27E-09 Convergence criterion met
 Total energy in the final basis set = -286.85051907
   12    -286.8505749504      9.36E-09 Convergence criterion met
 Total energy in the final basis set = -286.85057495
   13    -286.8505925824      3.87E-09 Convergence criterion met
 Total energy in the final basis set = -286.85059258
   11    -286.8505973773      7.26E-09 Convergence criterion met
 Total energy in the final basis set = -286.85059738

             Standard Nuclear Orientation (Angstroms)
    I     Atom           X                Y                Z
 ----------------------------------------------------------------
    1      C       0.4561664384    -0.2435464672     0.1997047350
    2      C       0.3439110544    -1.3556590771    -0.8455948237
    3      C       0.8794992727    -2.5470744433    -0.7317168125
    4      C      -1.0849272773     1.4427788846     0.5068494016
    5      C       0.1103238136     1.8962045973    -0.2210581683
    6      N       1.0003668309     0.9812768625    -0.4109844055
    7      H       1.1484312683    -0.5646757759     0.9895939819
    8      H      -0.2431805335    -1.0880600240    -1.7256452458
    9      H       1.4937956105    -3.0852555462    -0.0201616508
   10      H      -1.9400716155     2.0569241057     0.7658950848
   11      H       0.2675000346     2.9123038054    -0.5810867423
   12      C      -0.8859836504     0.1401116031     0.7777419441
   13      H      -1.5458312470    -0.5453285251     1.2964627018
 ----------------------------------------------------------------

   11    -286.8505980703      4.64E-09 Convergence criterion met
 Total energy in the final basis set = -286.85059807
 Final energy is   -286.850598070327
 **  OPTIMIZATION CONVERGED  **

                    Orbital Energies (a.u.)
 --------------------------------------------------------------

 Alpha MOs
 -- Occupied --
-14.323 -10.230 -10.227 -10.209 -10.205 -10.202 -10.201  -0.946
 -0.791  -0.769  -0.704  -0.587  -0.563  -0.555  -0.514  -0.469
 -0.425  -0.411  -0.404  -0.374  -0.332  -0.283  -0.265  -0.252
 -0.234

 Beta MOs
 -- Occupied --
-14.323 -10.229 -10.227 -10.205 -10.204 -10.201 -10.194  -0.945
 -0.783  -0.767  -0.692  -0.577  -0.558  -0.551  -0.513  -0.461
 -0.416  -0.409  -0.401  -0.370  -0.328  -0.279  -0.264  -0.248

          Ground-State Mulliken Net Atomic Charges

     Atom                 Charge (a.u.)    Spin (a.u.)
  --------------------------------------------------------
      1 C                    -0.095362       0.072743
      2 C                    -0.075965      -0.163820
      3 C                    -0.194288       1.044199
      4 C                    -0.141055       0.002988
      5 C                     0.052042       0.008730
      6 N                    -0.363929      -0.003228
      7 H                     0.173252      -0.003391
      8 H                     0.157824       0.037316
      9 H                     0.160536       0.001740
     10 H                     0.142775       0.000381
     11 H                     0.145202       0.000632
     12 C                    -0.113594       0.001929
     13 H                     0.152562      -0.000218
  --------------------------------------------------------
  Sum of atomic charges =     0.000000

                    Cartesian Multipole Moments
 -----------------------------------------------------------------
    Charge (ESU x 10^10)
                 0.0000
    Dipole Moment (Debye)
         X      -1.7610      Y       0.1746      Z       1.5113
       Tot       2.3272
    Quadrupole Moments (Debye-Ang)
        XX     -41.9903     XY      -3.7807     YY     -37.4826
        XZ       1.8520     YZ      -2.0408     ZZ     -41.2901

 Total job time:  101.59s(wall), 167.47s(cpu)
        *  Thank you very much for using Q-Chem.  Have a nice day.  *
