 Q-Chem 5.0, Q-Chem, Inc., Pleasanton, CA (2017)
 Q-Chem 5.0.2 for Intel X86 EM64T Linux

User input:
--------------------------------------------------------------
$molecule
0 2
C        1.6868280310    0.3354855984   -2.4364632468
C        1.3635740912   -1.0992734445   -2.3814419338
C       -0.2014787854   -1.2991263815   -2.4393932819
C       -1.3246924915    0.4273759589   -1.0343598414
C       -0.7883465801    1.1798098045   -2.2209108852
N        0.8123315424    1.3076615743   -2.7861737250
H        2.6970111827    0.8517521343   -2.5755200879
H        2.0466138620   -1.8906804747   -2.0027881981
H       -0.2514649951   -1.3129652307   -3.5864670442
H       -0.9393103929    0.8104862214   -0.0890741649
H       -1.7262144881    1.5701219789   -2.7080934136
C       -1.6970773217   -0.9786671917   -1.1378104749
H       -1.9665556925   -1.7320957924   -0.5285007398
$end

$rem
method                b3lyp
basis                 6-31g(d)
unrestricted          true
symmetry              off
sym_ignore            true
incdft                false
incfock               0
scf_convergence       8
thresh                14
jobtype               opt
scf_guess             read
scf_algorithm         diis
max_scf_cycles        100
geom_opt_tol_gradient 600
geom_opt_tol_displacement 2400
geom_opt_tol_energy   200
geom_opt_max_cycles   100
$end

--------------------------------------------------------------

    2    -286.5779459517      3.37E-09 Convergence criterion met
 Total energy in the final basis set = -286.57794595
   20    -286.6405227525      9.61E-09 Convergence criterion met
 Total energy in the final basis set = -286.64052275
   21    -286.6984510207      5.31E-09 Convergence criterion met
 Total energy in the final basis set = -286.69845102
   20    -286.7489258252      9.79E-09 Convergence criterion met
 Total energy in the final basis set = -286.74892583
   18    -286.7865106974      4.80E-09 Convergence criterion met
 Total energy in the final basis set = -286.78651070
   16    -286.8102346698      9.17E-09 Convergence criterion met
 Total energy in the final basis set = -286.81023467
   16    -286.8253305112      4.60E-09 Convergence criterion met
 Total energy in the final basis set = -286.82533051
   15    -286.8364125580      8.64E-09 Convergence criterion met
   15    -286.9242581234      4.64E-09 Convergence criterion met
 Total energy in the final basis set = -286.92425812
   15    -286.9242986553      4.92E-09 Convergence criterion met
 Total energy in the final basis set = -286.92429866
   15    -286.9243147914      4.64E-09 Convergence criterion met
 Total energy in the final basis set = -286.92431479
   14    -286.9243263042      3.80E-09 Convergence criterion met
 Total energy in the final basis set = -286.92432630
   13    -286.9243317825      6.32E-09 Convergence criterion met
 Total energy in the final basis set = -286.92433178
   13    -286.9243343203      3.48E-09 Convergence criterion met
 Total energy in the final basis set = -286.92433432

             Standard Nuclear Orientation (Angstroms)
    I     Atom           X                Y                Z
 ----------------------------------------------------------------
    1      C       1.4584433809     0.3609201963    -2.6380037139
    2      C       1.1695215161    -0.9863146799    -2.5203800514
    3      C      -0.0285772129    -1.5978222423    -2.0043108094
    4      C      -1.3307897977     0.4643141103    -1.4168671680
    5      C      -0.4664668769     1.4767901003    -1.7862062698
    6      N       0.7730784519     1.4863357534    -2.3318569574
    7      H       2.4390773590     0.5833358964    -3.0649556504
    8      H       1.9461621375    -1.6657683195    -2.8634170117
    9      H      -0.0436191758    -2.6859778619    -2.0075754915
   10      H      -2.2798303571     0.7866980292    -0.9953344853
   11      H      -0.8431886737     2.4870497947    -1.6114101764
   12      C      -1.1306094688    -0.9593758352    -1.5189716351
   13      H      -1.9519833204    -1.5803001867    -1.1677076172
 ----------------------------------------------------------------

   12    -286.9243355639      9.42E-09 Convergence criterion met
 Total energy in the final basis set = -286.92433556
 Final energy is   -286.924335563872
 **  OPTIMIZATION CONVERGED  **

                    Orbital Energies (a.u.)
 --------------------------------------------------------------

 Alpha MOs
 -- Occupied --
-14.322 -10.232 -10.232 -10.212 -10.211 -10.201 -10.200  -0.922
 -0.818  -0.784  -0.693  -0.667  -0.551  -0.537  -0.518  -0.449
 -0.439  -0.414  -0.394  -0.387  -0.349  -0.322  -0.299  -0.251
 -0.162

 Beta MOs
 -- Occupied --
-14.314 -10.234 -10.233 -10.210 -10.210 -10.196 -10.196  -0.911
 -0.809  -0.777  -0.681  -0.665  -0.546  -0.534  -0.514  -0.447
 -0.438  -0.411  -0.383  -0.373  -0.348  -0.295  -0.276  -0.241

          Ground-State Mulliken Net Atomic Charges

     Atom                 Charge (a.u.)    Spin (a.u.)
  --------------------------------------------------------
      1 C                     0.036030      -0.115002
      2 C                    -0.132045       0.351036
      3 C                    -0.110888       0.088823
      4 C                    -0.130910       0.343239
      5 C                     0.035019      -0.110394
      6 N                    -0.423294       0.386889
      7 H                     0.142608       0.003520
      8 H                     0.134356      -0.018522
      9 H                     0.141956      -0.006399
     10 H                     0.134432      -0.018159
     11 H                     0.142589       0.003292
     12 C                    -0.111766       0.098544
     13 H                     0.141914      -0.006867
  --------------------------------------------------------
  Sum of atomic charges =     0.000000

                    Cartesian Multipole Moments
 -----------------------------------------------------------------
    Charge (ESU x 10^10)
                 0.0000
    Dipole Moment (Debye)
         X      -0.9662      Y      -1.9824      Z       0.4125
       Tot       2.2436
    Quadrupole Moments (Debye-Ang)
        XX     -37.1965     XY      -2.8670     YY     -40.0255
        XZ      -0.7778     YZ       5.2706     ZZ     -43.8194

 Total job time:  1369.90s(wall), 1788.66s(cpu)
        *  Thank you very much for using Q-Chem.  Have a nice day.  *
