 Q-Chem 5.0, Q-Chem, Inc., Pleasanton, CA (2017)
 Q-Chem 5.0.2 for Intel X86 EM64T Linux

User input:
--------------------------------------------------------------
$molecule
0 2
C        1.5366063709    0.4306394942   -0.3797269952
C        0.8434483317   -0.7968071007    0.0803704746
C       -0.5858167304   -1.0277566174   -0.3817094348
C       -1.1173886402    0.3114209015    0.1006779158
C       -0.4274396037    1.5421362482   -0.3551205131
N        0.8839183098    1.5727556656   -0.5858436800
H        2.6088040851    0.4182818606   -0.5653988334
H        1.4549523775   -1.6858761573    0.2258393024
H       -1.0688158931   -1.8723541415   -0.8530182914
H       -2.1917641923    0.3765177470    0.2642255122
H       -0.9903480078    2.4599444081   -0.5140737588
C       -0.3511969638   -0.6397158460    1.0056778007
H       -0.5949594442   -1.0891864617    1.9581005007
$end

$rem
method                b3lyp
basis                 6-31g(d)
unrestricted          true
symmetry              off
sym_ignore            true
incdft                false
incfock               0
scf_convergence       8
thresh                14
jobtype               opt
scf_guess             read
scf_algorithm         diis
max_scf_cycles        100
geom_opt_tol_gradient 600
geom_opt_tol_displacement 2400
geom_opt_tol_energy   200
geom_opt_max_cycles   100
$end

--------------------------------------------------------------

    2    -286.8584590534      8.46E-10 Convergence criterion met
 Total energy in the final basis set = -286.85845905
    9    -286.8584616693      7.56E-09 Convergence criterion met
 Total energy in the final basis set = -286.85846167

             Standard Nuclear Orientation (Angstroms)
    I     Atom           X                Y                Z
 ----------------------------------------------------------------
    1      C       1.5359134427     0.4299929709    -0.3801279285
    2      C       0.8438126665    -0.7975918588     0.0797198058
    3      C      -0.5863853150    -1.0274325173    -0.3821025568
    4      C      -1.1169136052     0.3118456734     0.1018225921
    5      C      -0.4277409765     1.5418897327    -0.3566859105
    6      N       0.8834223913     1.5721450639    -0.5871617850
    7      H       2.6091760944     0.4198412978    -0.5599930965
    8      H       1.4550951051    -1.6871033602     0.2231013471
    9      H      -1.0699211442    -1.8715584602    -0.8538058192
   10      H      -2.1912552929     0.3772296719     0.2654498831
   11      H      -0.9910713835     2.4594861790    -0.5153890580
   12      C      -0.3509894888    -0.6409220854     1.0054843919
   13      H      -0.5931424943    -1.0878223072     1.9596881342
 ----------------------------------------------------------------

    9    -286.8584624179      6.73E-09 Convergence criterion met
 Total energy in the final basis set = -286.85846242
 Final energy is   -286.858462417874
 **  OPTIMIZATION CONVERGED  **

                    Orbital Energies (a.u.)
 --------------------------------------------------------------

 Alpha MOs
 -- Occupied --
-14.317 -10.216 -10.216 -10.215 -10.215 -10.215 -10.215  -0.960
 -0.896  -0.750  -0.643  -0.635  -0.589  -0.545  -0.482  -0.471
 -0.465  -0.408  -0.395  -0.365  -0.338  -0.299  -0.299  -0.227
 -0.173

 Beta MOs
 -- Occupied --
-14.320 -10.216 -10.216 -10.213 -10.213 -10.207 -10.207  -0.955
 -0.894  -0.738  -0.631  -0.630  -0.584  -0.542  -0.476  -0.466
 -0.463  -0.405  -0.377  -0.362  -0.323  -0.298  -0.294  -0.227

          Ground-State Mulliken Net Atomic Charges

     Atom                 Charge (a.u.)    Spin (a.u.)
  --------------------------------------------------------
      1 C                     0.076964       0.597217
      2 C                    -0.221340      -0.053367
      3 C                    -0.089703       0.094650
      4 C                    -0.221454      -0.053338
      5 C                     0.076997       0.597231
      6 N                    -0.395548      -0.205364
      7 H                     0.135600      -0.032057
      8 H                     0.142131       0.000520
      9 H                     0.154204      -0.004287
     10 H                     0.142172       0.000518
     11 H                     0.135564      -0.032057
     12 C                    -0.089825       0.094620
     13 H                     0.154238      -0.004286
  --------------------------------------------------------
  Sum of atomic charges =     0.000000

                    Cartesian Multipole Moments
 -----------------------------------------------------------------
    Charge (ESU x 10^10)
                 0.0000
    Dipole Moment (Debye)
         X      -1.3901      Y      -2.4737      Z       0.9237
       Tot       2.9841
    Quadrupole Moments (Debye-Ang)
        XX     -37.5996     XY      -3.4901     YY     -41.8100
        XZ       0.3469     YZ       0.7408     ZZ     -41.5442

 Total job time:  24.25s(wall), 75.05s(cpu)
        *  Thank you very much for using Q-Chem.  Have a nice day.  *
