 Q-Chem 5.0, Q-Chem, Inc., Pleasanton, CA (2017)
 Q-Chem 5.0.2 for Intel X86 EM64T Linux

User input:
--------------------------------------------------------------
$molecule
0 2
C        1.3652822579    0.3834213914    0.2014157343
C        0.8003240187   -0.9247048838   -0.2686708013
C       -0.5530188979   -0.8607943198   -0.8904791226
C       -1.0699545957    0.3334589931   -0.0203286709
C       -0.3947767858    1.5993757263   -0.3760626621
N        0.9009006467    1.6053830787   -0.2026901008
H        2.2793846737    0.3335791436    0.7846045511
H        1.4069442906   -1.8234083257   -0.2535264597
H       -1.1227664222   -1.7891339741   -0.9185177125
H       -2.1353459602    0.3579261561    0.1981097026
H       -0.9119552406    2.4595848906   -0.7897892887
C       -0.1420278808   -0.5344485533    0.8375177073
H       -0.4481731133   -1.1602914440    1.6733197437
$end

$rem
method                b3lyp
basis                 6-31+g(d,p)
unrestricted          true
symmetry              off
sym_ignore            true
incdft                false
incfock               0
scf_convergence       6
thresh                14
jobtype               sp
scf_guess             read
scf_algorithm         diis
max_scf_cycles        100
stability_analysis    true
max_cis_cycles        100
cis_n_roots           4
$end

--------------------------------------------------------------

             Standard Nuclear Orientation (Angstroms)
    I     Atom           X                Y                Z
 ----------------------------------------------------------------
    1      C       1.3652822579     0.3834213914     0.2014157343
    2      C       0.8003240187    -0.9247048838    -0.2686708013
    3      C      -0.5530188979    -0.8607943198    -0.8904791226
    4      C      -1.0699545957     0.3334589931    -0.0203286709
    5      C      -0.3947767858     1.5993757263    -0.3760626621
    6      N       0.9009006467     1.6053830787    -0.2026901008
    7      H       2.2793846737     0.3335791436     0.7846045511
    8      H       1.4069442906    -1.8234083257    -0.2535264597
    9      H      -1.1227664222    -1.7891339741    -0.9185177125
   10      H      -2.1353459602     0.3579261561     0.1981097026
   11      H      -0.9119552406     2.4595848906    -0.7897892887
   12      C      -0.1420278808    -0.5344485533     0.8375177073
   13      H      -0.4481731133    -1.1602914440     1.6733197437
 ----------------------------------------------------------------

    2    -286.8141395731      3.83E-09 Convergence criterion met
 Total energy in the final basis set = -286.81413957

         TDDFT/TDA Excitation Energies
 ---------------------------------------------------

 Excited state   1: excitation energy (eV) =    1.7192
 Total energy for state  1:                  -286.75095951 au
    <S**2>     :  0.7758
    Trans. Mom.: -0.1212 X  -0.6528 Y  -0.2104 Z
    Strength   :     0.0204344552
    S(  1) --> V(  1) amplitude =  0.9722 alpha
    D( 24) --> S(  1) amplitude = -0.1607 beta

 Excited state   2: excitation energy (eV) =    2.6373
 Total energy for state  2:                  -286.71721982 au
    <S**2>     :  0.7876
    Trans. Mom.:  0.1487 X   0.3058 Y  -0.2099 Z
    Strength   :     0.0103166247
    S(  1) --> V(  2) amplitude =  0.9951 alpha

 Excited state   3: excitation energy (eV) =    3.1229
 Total energy for state  3:                  -286.69937575 au
    <S**2>     :  0.8024
    Trans. Mom.: -0.2548 X   0.1569 Y   0.0280 Z
    Strength   :     0.0069113033
    S(  1) --> V(  3) amplitude =  0.7780 alpha
    S(  1) --> V(  4) amplitude = -0.5520 alpha
    S(  1) --> V(  6) amplitude = -0.1600 alpha

 Excited state   4: excitation energy (eV) =    3.3142
 Total energy for state  4:                  -286.69234652 au
    <S**2>     :  0.7875
    Trans. Mom.: -0.1258 X   0.1296 Y  -0.0259 Z
    Strength   :     0.0027021558
    S(  1) --> V(  3) amplitude =  0.5877 alpha
    S(  1) --> V(  4) amplitude =  0.8043 alpha

 ---------------------------------------------------

                    Orbital Energies (a.u.)
 --------------------------------------------------------------

 Alpha MOs
 -- Occupied --
-14.331 -10.252 -10.246 -10.232 -10.230 -10.228 -10.219  -0.979
 -0.888  -0.767  -0.655  -0.636  -0.613  -0.557  -0.506  -0.461
 -0.450  -0.433  -0.422  -0.380  -0.374  -0.321  -0.280  -0.257
 -0.137

 Beta MOs
 -- Occupied --
-14.331 -10.253 -10.243 -10.228 -10.227 -10.224 -10.215  -0.974
 -0.883  -0.760  -0.648  -0.627  -0.610  -0.553  -0.501  -0.458
 -0.443  -0.430  -0.412  -0.374  -0.366  -0.303  -0.273  -0.247

          Ground-State Mulliken Net Atomic Charges

     Atom                 Charge (a.u.)    Spin (a.u.)
  --------------------------------------------------------
      1 C                    -0.246813       0.247696
      2 C                    -0.062269       0.044806
      3 C                    -0.143841       0.605181
      4 C                    -0.264446      -0.043512
      5 C                     0.017895       0.245758
      6 N                    -0.199328      -0.006381
      7 H                     0.142968      -0.009223
      8 H                     0.150879      -0.007303
      9 H                     0.152881      -0.004667
     10 H                     0.139710      -0.002857
     11 H                     0.128425      -0.013487
     12 C                     0.035062      -0.070917
     13 H                     0.148876       0.014906
  --------------------------------------------------------
  Sum of atomic charges =     0.000000

                    Cartesian Multipole Moments
 -----------------------------------------------------------------
    Charge (ESU x 10^10)
                 0.0000
    Dipole Moment (Debye)
         X      -1.3344      Y      -2.8988      Z       1.3611
       Tot       3.4694
    Quadrupole Moments (Debye-Ang)
        XX     -39.3266     XY      -4.7191     YY     -43.3812
        XZ       0.9515     YZ      -1.2436     ZZ     -44.2845

 Total job time:  194.80s(wall), 188.04s(cpu)
        *  Thank you very much for using Q-Chem.  Have a nice day.  *
