 Q-Chem 5.0, Q-Chem, Inc., Pleasanton, CA (2017)
 Q-Chem 5.0.2 for Intel X86 EM64T Linux

User input:
--------------------------------------------------------------
$molecule
0 2
C        1.2039720164    0.2988561196    0.4111389332
C        0.7074356071   -1.0165138806   -0.2532961550
C       -0.5269338513   -0.7899512826   -1.0198508376
C       -1.0612228188    0.2169047831    0.0115853723
C       -0.4167170718    1.5389401423   -0.3820499402
N        0.8524837932    1.5634622788   -0.2012095832
H        2.1726988475    0.2383464798    0.8949915062
H        1.3744464320   -1.8696690294   -0.3109750619
H       -1.1205769421   -1.5698313715   -1.4818856868
H       -2.1247070827    0.2169787065    0.2496167177
H       -0.9377284752    2.3473959658   -0.8899981645
C        0.0090361063   -0.3821618245    0.9885979691
H       -0.1321865605   -0.7927570875    1.9833349308
$end

$rem
method                b3lyp
basis                 6-31+g(d,p)
unrestricted          true
symmetry              off
sym_ignore            true
incdft                false
incfock               0
scf_convergence       8
thresh                14
jobtype               sp
scf_guess             read
scf_algorithm         diis
max_scf_cycles        100
scf_final_print       1
$end

--------------------------------------------------------------

             Standard Nuclear Orientation (Angstroms)
    I     Atom           X                Y                Z
 ----------------------------------------------------------------
    1      C       1.2039720164     0.2988561196     0.4111389332
    2      C       0.7074356071    -1.0165138806    -0.2532961550
    3      C      -0.5269338513    -0.7899512826    -1.0198508376
    4      C      -1.0612228188     0.2169047831     0.0115853723
    5      C      -0.4167170718     1.5389401423    -0.3820499402
    6      N       0.8524837932     1.5634622788    -0.2012095832
    7      H       2.1726988475     0.2383464798     0.8949915062
    8      H       1.3744464320    -1.8696690294    -0.3109750619
    9      H      -1.1205769421    -1.5698313715    -1.4818856868
   10      H      -2.1247070827     0.2169787065     0.2496167177
   11      H      -0.9377284752     2.3473959658    -0.8899981645
   12      C       0.0090361063    -0.3821618245     0.9885979691
   13      H      -0.1321865605    -0.7927570875     1.9833349308
 ----------------------------------------------------------------

    2    -286.8569042027      9.17E-10 Convergence criterion met
 Total energy in the final basis set = -286.85690420

                    Orbital Energies (a.u.)
 --------------------------------------------------------------

 Alpha MOs
 -- Occupied --
-14.334 -10.233 -10.231 -10.223 -10.221 -10.220 -10.211  -0.980
 -0.867  -0.760  -0.673  -0.615  -0.583  -0.549  -0.518  -0.464
 -0.450  -0.420  -0.410  -0.369  -0.344  -0.317  -0.282  -0.271
 -0.181

 Beta MOs
 -- Occupied --
-14.334 -10.233 -10.231 -10.221 -10.221 -10.220 -10.199  -0.976
 -0.862  -0.753  -0.661  -0.611  -0.579  -0.544  -0.511  -0.458
 -0.446  -0.415  -0.406  -0.360  -0.340  -0.305  -0.275  -0.266

          Ground-State Mulliken Net Atomic Charges

     Atom                 Charge (a.u.)    Spin (a.u.)
  --------------------------------------------------------
      1 C                    -0.255139       0.012086
      2 C                    -0.108386      -0.098249
      3 C                    -0.109186       0.998751
      4 C                    -0.112615      -0.084679
      5 C                    -0.010483      -0.002893
      6 N                    -0.177344       0.026538
      7 H                     0.144939       0.003245
      8 H                     0.140185       0.000273
      9 H                     0.136739      -0.039443
     10 H                     0.131413       0.008024
     11 H                     0.131975       0.001601
     12 C                    -0.047310       0.166917
     13 H                     0.135214       0.007829
  --------------------------------------------------------
  Sum of atomic charges =    -0.000000

                    Cartesian Multipole Moments
 -----------------------------------------------------------------
    Charge (ESU x 10^10)
                 0.0000
    Dipole Moment (Debye)
         X      -1.5530      Y      -2.1236      Z       1.2683
       Tot       2.9207
    Quadrupole Moments (Debye-Ang)
        XX     -39.4159     XY      -4.8485     YY     -43.5333
        XZ       2.0780     YZ      -0.0428     ZZ     -42.3117

 Total job time:  4.46s(wall), 11.95s(cpu)
        *  Thank you very much for using Q-Chem.  Have a nice day.  *
