 Q-Chem 5.0, Q-Chem, Inc., Pleasanton, CA (2017)
 Q-Chem 5.0.2 for Intel X86 EM64T Linux

User input:
--------------------------------------------------------------
$molecule
0 2
C        1.5754785653    0.4456378027   -0.0864065337
C        0.8223283915   -0.8151126325    0.1169043780
C       -0.5184346897   -0.9679999234   -0.5827410394
C       -1.1197088540    0.3163730023   -0.0359153085
C       -0.3701531584    1.5790024873   -0.2391948709
N        0.9609384316    1.6142423936   -0.2595241318
H        2.6636733083    0.4391202389   -0.0978608632
H        1.4056143291   -1.7249866416    0.2489551345
H       -0.9199163278   -1.7438934080   -1.2196390896
H       -2.2065761233    0.3796194190   -0.0333785087
H       -0.9038662590    2.5172603176   -0.3783017375
C       -0.5020008311   -0.7459385163    0.8590849691
H       -0.8873767824   -1.2933245392    1.7080176017
****
C        1.2022433504    0.2878293331    0.3826941638
C        0.6319579184   -1.1043015847   -0.1506574462
C       -0.6179332009   -0.9075432039   -0.8724848232
C       -1.0787920851    0.1774088512    0.0982984374
C       -0.4488969787    1.4616735398   -0.4277265339
N        0.8289203037    1.4935584836   -0.3133379118
H        2.2047770843    0.2371175100    0.7951764712
H        1.3124957837   -1.9490589782   -0.1902368809
H       -0.9096615787   -1.1113211611   -1.9001057638
H       -2.1277515227    0.2118753785    0.4006643542
H       -0.9940590257    2.2286103487   -0.9756957538
C        0.0450322536   -0.3542960290    1.0595635809
H       -0.0483323022   -0.6715524880    2.0938481063
$end

$rem
method                b3lyp
basis                 6-31g(d)
unrestricted          true
symmetry              off
sym_ignore            true
incdft                false
incfock               0
scf_convergence       8
thresh                14
jobtype               fsm
scf_guess             core
scf_guess_mix         5
scf_algorithm         diis
max_scf_cycles        100
fsm_nnode             21
fsm_ngrad             6
fsm_mode              2
fsm_opt_mode          2
$end

--------------------------------------------------------------

   19    -286.8584671167      3.63E-09 Convergence criterion met
 Total energy in the final basis set = -286.85846712
   20    -286.8383308245      8.26E-09 Convergence criterion met
 Total energy in the final basis set = -286.83833082
   19    -286.8571175151      6.09E-09 Convergence criterion met
 Total energy in the final basis set = -286.85711752
   19    -286.8569665204      5.80E-09 Convergence criterion met
 Total energy in the final basis set = -286.85696652
   20    -286.8496163567      6.34E-09 Convergence criterion met
 Total energy in the final basis set = -286.84961636
   19    -286.8560984500      8.08E-09 Convergence criterion met
 Total energy in the final basis set = -286.85609845
   20    -286.8364617227      4.95E-09 Convergence criterion met
 Total energy in the final basis set = -286.83646172
   20    -286.8370768940      7.27E-09 Convergence criterion met
 Total energy in the final basis set = -286.78671786
   23    -286.7861429205      5.32E-09 Convergence criterion met
 Total energy in the final basis set = -286.78614292
   24    -286.7867304088      2.25E-09 Convergence criterion met
 Total energy in the final basis set = -286.78673041
   23    -286.7861348455      6.21E-09 Convergence criterion met
 Total energy in the final basis set = -286.78613485
   24    -286.7867304106      2.24E-09 Convergence criterion met
 Total energy in the final basis set = -286.78673041
   23    -286.7861377038      6.56E-09 Convergence criterion met
 Total energy in the final basis set = -286.78613770
   24    -286.7867326171      2.25E-09 Convergence criterion met
 Total energy in the final basis set = -286.78673262
   23    -286.7861381473      6.74E-09 Convergence criterion met
 Total energy in the final basis set = -286.78613815

                    Orbital Energies (a.u.)
 --------------------------------------------------------------

 Alpha MOs
 -- Occupied --
-14.323 -10.233 -10.229 -10.215 -10.214 -10.211 -10.207  -0.960
 -0.866  -0.749  -0.637  -0.624  -0.600  -0.539  -0.489  -0.449
 -0.443  -0.417  -0.409  -0.372  -0.354  -0.302  -0.270  -0.232
 -0.134

 Beta MOs
 -- Occupied --
-14.323 -10.230 -10.229 -10.213 -10.212 -10.210 -10.195  -0.957
 -0.860  -0.743  -0.627  -0.613  -0.598  -0.535  -0.485  -0.442
 -0.438  -0.415  -0.401  -0.363  -0.351  -0.290  -0.263  -0.220

          Ground-State Mulliken Net Atomic Charges

     Atom                 Charge (a.u.)    Spin (a.u.)
  --------------------------------------------------------
      1 C                    -0.000776       0.230202
      2 C                    -0.158097      -0.001736
      3 C                    -0.114462       0.810462
      4 C                    -0.263867      -0.009248
      5 C                     0.114076       0.147174
      6 N                    -0.350868      -0.032970
      7 H                     0.152413      -0.004275
      8 H                     0.148103      -0.002843
      9 H                     0.146084      -0.037895
     10 H                     0.140712       0.000642
     11 H                     0.142430      -0.006684
     12 C                    -0.110092      -0.108329
     13 H                     0.154343       0.015500
  --------------------------------------------------------
  Sum of atomic charges =     0.000000

                    Cartesian Multipole Moments
 -----------------------------------------------------------------
    Charge (ESU x 10^10)
                 0.0000
    Dipole Moment (Debye)
         X      -1.2367      Y      -2.1828      Z       0.9793
       Tot       2.6932
    Quadrupole Moments (Debye-Ang)
        XX     -37.9032     XY      -3.7352     YY     -41.4686
        XZ       1.2472     YZ      -0.7342     ZZ     -42.1434

             Standard Nuclear Orientation (Angstroms)
    I     Atom           X                Y                Z
 ----------------------------------------------------------------
    1      C       1.3781787822     0.3665340866     0.2096456921
    2      C       0.7440746719    -0.9496988933    -0.1871485365
    3      C      -0.5388534304    -0.8253852666    -0.9275363321
    4      C      -1.0715597868     0.2839708887     0.0302503774
    5      C      -0.4076348478     1.5583758913    -0.3702666285
    6      N       0.8781593919     1.5705533774    -0.2404746576
    7      H       2.3484839628     0.3690791900     0.6963811538
    8      H       1.3646994944    -1.8424852020    -0.1544886028
    9      H      -1.1184544910    -1.6721771973    -1.2692508370
   10      H      -2.1390566551     0.3319241469     0.2475261672
   11      H      -0.9324013946     2.4017897524    -0.8140687906
   12      C      -0.1168865512    -0.5130339190     0.9431450424
   13      H      -0.4139321551    -1.0994989759     1.8111885729
 ----------------------------------------------------------------

 Total job time:  1587.05s(wall), 4443.49s(cpu)
        *  Thank you very much for using Q-Chem.  Have a nice day.  *
