 Q-Chem 5.0, Q-Chem, Inc., Pleasanton, CA (2017)
 Q-Chem 5.0.2 for Intel X86 EM64T Linux

User input:
--------------------------------------------------------------
$molecule
0 2
C        1.2023640827    0.2879928461    0.3827052022
C        0.6317355245   -1.1045674653   -0.1506886520
C       -0.6176198843   -0.9072132295   -0.8726001464
C       -1.0788684607    0.1774554208    0.0985442753
C       -0.4490304279    1.4618269149   -0.4273401279
N        0.8286478704    1.4942236175   -0.3122467265
H        2.2050873932    0.2369218955    0.7946754324
H        1.3122602734   -1.9493503009   -0.1903344472
H       -0.9096619327   -1.1112908211   -1.9000569403
H       -2.1279224688    0.2118404987    0.4006459437
H       -0.9938951028    2.2279686882   -0.9767549243
C        0.0451131463   -0.3542314655    1.0595977173
H       -0.0482100134   -0.6715765993    2.0938533938
$end

$rem
method                b3lyp
basis                 6-31g(d)
unrestricted          true
symmetry              off
sym_ignore            true
incdft                false
incfock               0
scf_convergence       8
thresh                14
jobtype               opt
scf_guess             core
scf_guess_mix         5
scf_algorithm         diis
max_scf_cycles        100
geom_opt_max_cycles   300
$end

--------------------------------------------------------------

   20    -286.8383302089      8.12E-09 Convergence criterion met
 Total energy in the final basis set = -286.83833021

             Standard Nuclear Orientation (Angstroms)
    I     Atom           X                Y                Z
 ----------------------------------------------------------------
    1      C       1.2022433504     0.2878293331     0.3826941638
    2      C       0.6319579184    -1.1043015847    -0.1506574462
    3      C      -0.6179332009    -0.9075432039    -0.8724848232
    4      C      -1.0787920851     0.1774088512     0.0982984374
    5      C      -0.4488969787     1.4616735398    -0.4277265339
    6      N       0.8289203037     1.4935584836    -0.3133379118
    7      H       2.2047770843     0.2371175100     0.7951764712
    8      H       1.3124957837    -1.9490589782    -0.1902368809
    9      H      -0.9096615787    -1.1113211611    -1.9001057638
   10      H      -2.1277515227     0.2118753785     0.4006643542
   11      H      -0.9940590257     2.2286103487    -0.9756957538
   12      C       0.0450322536    -0.3542960290     1.0595635809
   13      H      -0.0483323022    -0.6715524880     2.0938481063
 ----------------------------------------------------------------

   15    -286.8383308172      5.50E-09 Convergence criterion met
 Total energy in the final basis set = -286.83833082
 Final energy is   -286.838330817232
 **  OPTIMIZATION CONVERGED  **

                    Orbital Energies (a.u.)
 --------------------------------------------------------------

 Alpha MOs
 -- Occupied --
-14.320 -10.224 -10.220 -10.210 -10.209 -10.208 -10.206  -0.968
 -0.856  -0.749  -0.664  -0.606  -0.571  -0.535  -0.516  -0.467
 -0.439  -0.405  -0.400  -0.356  -0.336  -0.298  -0.273  -0.256
 -0.182

 Beta MOs
 -- Occupied --
-14.319 -10.222 -10.219 -10.211 -10.209 -10.207 -10.193  -0.964
 -0.850  -0.741  -0.652  -0.601  -0.567  -0.528  -0.511  -0.461
 -0.434  -0.403  -0.394  -0.348  -0.332  -0.292  -0.262  -0.251

          Ground-State Mulliken Net Atomic Charges

     Atom                 Charge (a.u.)    Spin (a.u.)
  --------------------------------------------------------
      1 C                    -0.019092       0.096856
      2 C                    -0.163415      -0.095844
      3 C                    -0.066263       0.888520
      4 C                    -0.258037      -0.065705
      5 C                     0.088653       0.047027
      6 N                    -0.342225       0.039247
      7 H                     0.151439       0.002843
      8 H                     0.147212       0.005290
      9 H                     0.136243      -0.019296
     10 H                     0.142804       0.022691
     11 H                     0.143041       0.001384
     12 C                    -0.108438       0.077770
     13 H                     0.148078      -0.000783
  --------------------------------------------------------
  Sum of atomic charges =    -0.000000

                    Cartesian Multipole Moments
 -----------------------------------------------------------------
    Charge (ESU x 10^10)
                -0.0000
    Dipole Moment (Debye)
         X      -1.2005      Y      -1.4920      Z       0.7276
       Tot       2.0486
    Quadrupole Moments (Debye-Ang)
        XX     -38.9593     XY      -4.8805     YY     -43.3702
        XZ       2.2426     YZ       0.1599     ZZ     -38.9889

 Total job time:  41.40s(wall), 109.16s(cpu)
        *  Thank you very much for using Q-Chem.  Have a nice day.  *
