 Q-Chem 5.0, Q-Chem, Inc., Pleasanton, CA (2017)
 Q-Chem 5.0.2 for Intel X86 EM64T Linux

User input:
--------------------------------------------------------------
$molecule
0 2
C        1.3652822579    0.3834213914    0.2014157343
C        0.8003240187   -0.9247048838   -0.2686708013
C       -0.5530188979   -0.8607943198   -0.8904791226
C       -1.0699545957    0.3334589931   -0.0203286709
C       -0.3947767858    1.5993757263   -0.3760626621
N        0.9009006467    1.6053830787   -0.2026901008
H        2.2793846737    0.3335791436    0.7846045511
H        1.4069442906   -1.8234083257   -0.2535264597
H       -1.1227664222   -1.7891339741   -0.9185177125
H       -2.1353459602    0.3579261561    0.1981097026
H       -0.9119552406    2.4595848906   -0.7897892887
C       -0.1420278808   -0.5344485533    0.8375177073
H       -0.4481731133   -1.1602914440    1.6733197437
$end

$rem
method                b3lyp
basis                 6-31+g(d,p)
unrestricted          true
symmetry              off
sym_ignore            true
incdft                false
incfock               0
scf_convergence       8
thresh                14
jobtype               freq
scf_guess             read
scf_algorithm         diis
max_scf_cycles        100
$end

--------------------------------------------------------------

             Standard Nuclear Orientation (Angstroms)
    I     Atom           X                Y                Z
 ----------------------------------------------------------------
    1      C       1.3652822579     0.3834213914     0.2014157343
    2      C       0.8003240187    -0.9247048838    -0.2686708013
    3      C      -0.5530188979    -0.8607943198    -0.8904791226
    4      C      -1.0699545957     0.3334589931    -0.0203286709
    5      C      -0.3947767858     1.5993757263    -0.3760626621
    6      N       0.9009006467     1.6053830787    -0.2026901008
    7      H       2.2793846737     0.3335791436     0.7846045511
    8      H       1.4069442906    -1.8234083257    -0.2535264597
    9      H      -1.1227664222    -1.7891339741    -0.9185177125
   10      H      -2.1353459602     0.3579261561     0.1981097026
   11      H      -0.9119552406     2.4595848906    -0.7897892887
   12      C      -0.1420278808    -0.5344485533     0.8375177073
   13      H      -0.4481731133    -1.1602914440     1.6733197437
 ----------------------------------------------------------------

    2    -286.8141395732      2.45E-10 Convergence criterion met
 Total energy in the final basis set = -286.81413957

                    Orbital Energies (a.u.)
 --------------------------------------------------------------

 Alpha MOs
 -- Occupied --
-14.331 -10.252 -10.246 -10.232 -10.230 -10.228 -10.219  -0.979
 -0.888  -0.767  -0.655  -0.636  -0.613  -0.557  -0.506  -0.461
 -0.450  -0.433  -0.422  -0.380  -0.374  -0.321  -0.280  -0.257
 -0.137

 Beta MOs
 -- Occupied --
-14.331 -10.253 -10.243 -10.228 -10.227 -10.224 -10.215  -0.974
 -0.883  -0.760  -0.648  -0.627  -0.610  -0.553  -0.501  -0.458
 -0.443  -0.430  -0.412  -0.374  -0.366  -0.303  -0.273  -0.247

          Ground-State Mulliken Net Atomic Charges

     Atom                 Charge (a.u.)    Spin (a.u.)
  --------------------------------------------------------
      1 C                    -0.246812       0.247700
      2 C                    -0.062269       0.044806
      3 C                    -0.143841       0.605181
      4 C                    -0.264446      -0.043511
      5 C                     0.017895       0.245765
      6 N                    -0.199328      -0.006386
      7 H                     0.142968      -0.009223
      8 H                     0.150879      -0.007303
      9 H                     0.152881      -0.004667
     10 H                     0.139710      -0.002857
     11 H                     0.128425      -0.013487
     12 C                     0.035062      -0.070924
     13 H                     0.148876       0.014906
  --------------------------------------------------------
  Sum of atomic charges =     0.000000

                    Cartesian Multipole Moments
 -----------------------------------------------------------------
    Charge (ESU x 10^10)
                 0.0000
    Dipole Moment (Debye)
         X      -1.3344      Y      -2.8988      Z       1.3611
       Tot       3.4694
    Quadrupole Moments (Debye-Ang)
        XX     -39.3266     XY      -4.7191     YY     -43.3812
        XZ       0.9515     YZ      -1.2436     ZZ     -44.2845

 Frequency:      -924.18                 136.06                 442.00
 Force Cnst:      2.7549                 0.0591                 0.3105
 Red. Mass:       5.4745                 5.4162                 2.6979
 IR Intens:      243.783                 32.425                  1.686
 Frequency:       463.65                 649.07                 665.99
 Force Cnst:      0.7396                 1.4451                 0.7376
 Red. Mass:       5.8392                 5.8220                 2.8225
 IR Intens:        5.577                 14.447                 37.003
 Frequency:       693.42                 761.03                 786.51
 Force Cnst:      0.8315                 0.5043                 0.5600
 Red. Mass:       2.9351                 1.4778                 1.5366
 IR Intens:        6.565                 21.189                 47.844
 Frequency:       814.38                 856.74                 874.64
 Force Cnst:      0.6545                 0.6277                 0.9025
 Red. Mass:       1.6750                 1.4515                 2.0024
 IR Intens:        3.847                  6.586                 54.206
 Frequency:       914.01                 939.47                 983.84
 Force Cnst:      0.7827                 0.8741                 1.3261
 Red. Mass:       1.5901                 1.6809                 2.3254
 IR Intens:        1.745                 14.271                  2.604
 Frequency:      1020.22                1050.20                1065.60
 Force Cnst:      1.1900                 1.2506                 1.0331
 Red. Mass:       1.9405                 1.9245                 1.5441
 IR Intens:        1.732                  5.053                  4.459
 Frequency:      1149.41                1170.24                1192.98
 Force Cnst:      1.8780                 1.0676                 1.3628
 Red. Mass:       2.4127                 1.3231                 1.6252
 IR Intens:       12.247                  6.946                 11.739
 Frequency:      1230.30                1315.97                1337.05
 Force Cnst:      1.6786                 1.4294                 2.0748
 Red. Mass:       1.8823                 1.4009                 1.9698
 IR Intens:        7.840                  8.047                 12.607
 Frequency:      1363.89                1396.84                1531.76
 Force Cnst:      2.2900                 2.5422                 6.0149
 Red. Mass:       2.0895                 2.2114                 4.3511
 IR Intens:       10.016                  4.316                 71.138
 Frequency:      3145.27                3161.35                3171.88
 Force Cnst:      6.3426                 6.4189                 6.4717
 Red. Mass:       1.0882                 1.0901                 1.0918
 IR Intens:       12.232                  7.384                 16.922
 Frequency:      3199.24                3205.68                3211.89
 Force Cnst:      6.5622                 6.6141                 6.6559
 Red. Mass:       1.0882                 1.0924                 1.0951
 IR Intens:        7.453                 14.104                  5.047

 STANDARD THERMODYNAMIC QUANTITIES AT   298.15 K  AND     1.00 ATM

   This Molecule has  1 Imaginary Frequencies
   Zero point vibrational energy:       62.759 kcal/mol

   Atom    1 Element C  Has Mass   12.00000
   Atom    2 Element C  Has Mass   12.00000
   Atom    3 Element C  Has Mass   12.00000
   Atom    4 Element C  Has Mass   12.00000
   Atom    5 Element C  Has Mass   12.00000
   Atom    6 Element N  Has Mass   14.00307
   Atom    7 Element H  Has Mass    1.00783
   Atom    8 Element H  Has Mass    1.00783
   Atom    9 Element H  Has Mass    1.00783
   Atom   10 Element H  Has Mass    1.00783
   Atom   11 Element H  Has Mass    1.00783
   Atom   12 Element C  Has Mass   12.00000
   Atom   13 Element H  Has Mass    1.00783
   Molecular Mass:    92.050050 amu
   Principal axes and moments of inertia in amu*Bohr^2:
                             1           2           3
    Eigenvalues --      348.29992   457.84356   632.61579
          X               0.23332     0.95833    -0.16482
          Y               0.97213    -0.22592     0.06259
          Z              -0.02275     0.17483     0.98434
   Rotational Symmetry Number is   1
   The Molecule is an Asymmetric Top
   Translational Enthalpy:        0.889 kcal/mol
   Rotational Enthalpy:           0.889 kcal/mol
   Vibrational Enthalpy:         64.190 kcal/mol
   gas constant (RT):             0.592 kcal/mol
   Translational Entropy:        39.471  cal/mol.K
   Rotational Entropy:           26.114  cal/mol.K
   Vibrational Entropy:           7.307  cal/mol.K

   Total Enthalpy:               66.560 kcal/mol
   Total Entropy:                72.892  cal/mol.K

 Total job time:  569.62s(wall), 563.98s(cpu)
        *  Thank you very much for using Q-Chem.  Have a nice day.  *
