 Q-Chem 5.0, Q-Chem, Inc., Pleasanton, CA (2017)
 Q-Chem 5.0.2 for Intel X86 EM64T Linux

User input:
--------------------------------------------------------------
$molecule
0 2
C        1.3699569263    0.3876070074    0.1957650425
C        0.7962359039   -0.9232183903   -0.2634523813
C       -0.5526305225   -0.8559927556   -0.9020065705
C       -1.0690194577    0.3313604876   -0.0171178789
C       -0.3927939344    1.5972679854   -0.3723918128
N        0.9020420528    1.6063969334   -0.2031628288
H        2.2851058846    0.3384985533    0.7785630007
H        1.4040661259   -1.8219788893   -0.2466098113
H       -1.1201191894   -1.7868356441   -0.9121125867
H       -2.1353058983    0.3571356852    0.1999345805
H       -0.9107637263    2.4558016049   -0.7908191205
C       -0.1444289084   -0.5379283927    0.8388420798
H       -0.4575282654   -1.1681663062    1.6694709078
$end

$rem
method                b3lyp
basis                 6-31g(d)
unrestricted          true
symmetry              off
sym_ignore            true
incdft                false
incfock               0
scf_convergence       8
thresh                14
jobtype               sp
scf_guess             read
scf_algorithm         diis
max_scf_cycles        100
$end

--------------------------------------------------------------

             Standard Nuclear Orientation (Angstroms)
    I     Atom           X                Y                Z
 ----------------------------------------------------------------
    1      C       1.3699569263     0.3876070074     0.1957650425
    2      C       0.7962359039    -0.9232183903    -0.2634523813
    3      C      -0.5526305225    -0.8559927556    -0.9020065705
    4      C      -1.0690194577     0.3313604876    -0.0171178789
    5      C      -0.3927939344     1.5972679854    -0.3723918128
    6      N       0.9020420528     1.6063969334    -0.2031628288
    7      H       2.2851058846     0.3384985533     0.7785630007
    8      H       1.4040661259    -1.8219788893    -0.2466098113
    9      H      -1.1201191894    -1.7868356441    -0.9121125867
   10      H      -2.1353058983     0.3571356852     0.1999345805
   11      H      -0.9107637263     2.4558016049    -0.7908191205
   12      C      -0.1444289084    -0.5379283927     0.8388420798
   13      H      -0.4575282654    -1.1681663062     1.6694709078
 ----------------------------------------------------------------

    2    -286.7917480685      3.93E-09 Convergence criterion met
 Total energy in the final basis set = -286.79174807

                    Orbital Energies (a.u.)
 --------------------------------------------------------------

 Alpha MOs
 -- Occupied --
-14.316 -10.239 -10.234 -10.218 -10.218 -10.216 -10.208  -0.966
 -0.875  -0.755  -0.644  -0.625  -0.603  -0.547  -0.497  -0.450
 -0.439  -0.423  -0.412  -0.370  -0.363  -0.310  -0.267  -0.244
 -0.126

 Beta MOs
 -- Occupied --
-14.316 -10.240 -10.231 -10.216 -10.216 -10.210 -10.204  -0.961
 -0.871  -0.748  -0.636  -0.616  -0.600  -0.543  -0.492  -0.446
 -0.432  -0.419  -0.401  -0.363  -0.355  -0.290  -0.261  -0.234

          Ground-State Mulliken Net Atomic Charges

     Atom                 Charge (a.u.)    Spin (a.u.)
  --------------------------------------------------------
      1 C                     0.025902       0.247393
      2 C                    -0.172092       0.065455
      3 C                    -0.105788       0.576873
      4 C                    -0.250246       0.015920
      5 C                     0.096431       0.255481
      6 N                    -0.373925      -0.012274
      7 H                     0.152468      -0.010381
      8 H                     0.158671      -0.007373
      9 H                     0.146159      -0.004803
     10 H                     0.148748      -0.003160
     11 H                     0.138864      -0.013954
     12 C                    -0.124881      -0.127342
     13 H                     0.159689       0.018166
  --------------------------------------------------------
  Sum of atomic charges =     0.000000

                    Cartesian Multipole Moments
 -----------------------------------------------------------------
    Charge (ESU x 10^10)
                 0.0000
    Dipole Moment (Debye)
         X      -1.2374      Y      -2.6392      Z       1.2966
       Tot       3.1902
    Quadrupole Moments (Debye-Ang)
        XX     -38.2613     XY      -4.0653     YY     -41.7087
        XZ       0.8414     YZ      -1.1996     ZZ     -42.5892

 Total job time:  3.49s(wall), 6.61s(cpu)
        *  Thank you very much for using Q-Chem.  Have a nice day.  *
