 Q-Chem 5.0, Q-Chem, Inc., Pleasanton, CA (2017)
 Q-Chem 5.0.2 for Intel X86 EM64T Linux

User input:
--------------------------------------------------------------
$molecule
0 2
C        1.3917926526    0.8452961317   -0.4535025930
C        0.3320571785   -1.4191549484   -0.0108989053
C       -0.9372591919   -1.0635990874    0.3355769777
C       -1.4735453263    0.2709161228    0.4088277573
C       -0.8285738633    1.4661756562    0.1474827301
N        0.4314529297    1.7764552369   -0.2354434273
H        2.3396145720    1.2992120474   -0.7509214815
H        0.5705480365   -2.4807056323   -0.0106180559
H       -1.6290252401   -1.8659895641    0.5846124860
H       -2.5160373095    0.3540411315    0.7062609095
H       -1.4481548325    2.3572705780    0.2719537962
C        1.4089889628   -0.5338951732   -0.3753636075
H        2.3581414318   -1.0060224992   -0.6179665861
$end

$rem
method                b3lyp
basis                 6-31g(d)
unrestricted          true
symmetry              off
sym_ignore            true
incdft                false
incfock               0
scf_convergence       8
thresh                14
jobtype               opt
scf_guess             read
scf_algorithm         diis
max_scf_cycles        100
geom_opt_tol_gradient 600
geom_opt_tol_displacement 2400
geom_opt_tol_energy   200
geom_opt_max_cycles   100
$end

--------------------------------------------------------------

    2    -286.9243082816      9.12E-10 Convergence criterion met
 Total energy in the final basis set = -286.92430828

             Standard Nuclear Orientation (Angstroms)
    I     Atom           X                Y                Z
 ----------------------------------------------------------------
    1      C       1.3917524251     0.8455055199    -0.4526580562
    2      C       0.3326936869    -1.4191997252    -0.0086930428
    3      C      -0.9371227292    -1.0639113375     0.3360830925
    4      C      -1.4731955035     0.2709826973     0.4086688505
    5      C      -0.8281770945     1.4662727310     0.1483522592
    6      N       0.4318843431     1.7761849993    -0.2342744005
    7      H       2.3385546647     1.2996962370    -0.7528973915
    8      H       0.5699864426    -2.4811202235    -0.0124626912
    9      H      -1.6288244150    -1.8663653168     0.5847875770
   10      H      -2.5161579114     0.3546929102     0.7044545541
   11      H      -1.4482700407     2.3571565845     0.2712653168
   12      C       1.4093512480    -0.5336354032    -0.3737953544
   13      H       2.3575248843    -1.0062596730    -0.6188307131
 ----------------------------------------------------------------

   13    -286.9243107546      3.96E-09 Convergence criterion met
 Total energy in the final basis set = -286.92431075
 Final energy is   -286.924310754576
 **  OPTIMIZATION CONVERGED  **

                    Orbital Energies (a.u.)
 --------------------------------------------------------------

 Alpha MOs
 -- Occupied --
-14.322 -10.232 -10.232 -10.212 -10.211 -10.201 -10.200  -0.922
 -0.818  -0.784  -0.693  -0.667  -0.551  -0.537  -0.518  -0.449
 -0.439  -0.414  -0.394  -0.386  -0.349  -0.322  -0.299  -0.251
 -0.162

 Beta MOs
 -- Occupied --
-14.314 -10.234 -10.233 -10.210 -10.210 -10.196 -10.196  -0.911
 -0.809  -0.777  -0.681  -0.665  -0.546  -0.534  -0.514  -0.447
 -0.438  -0.411  -0.383  -0.373  -0.348  -0.295  -0.276  -0.242

          Ground-State Mulliken Net Atomic Charges

     Atom                 Charge (a.u.)    Spin (a.u.)
  --------------------------------------------------------
      1 C                     0.035171      -0.110026
      2 C                    -0.111709       0.099112
      3 C                    -0.110729       0.088368
      4 C                    -0.132016       0.351132
      5 C                     0.035929      -0.115109
      6 N                    -0.423417       0.387073
      7 H                     0.142595       0.003276
      8 H                     0.141917      -0.006893
      9 H                     0.141950      -0.006379
     10 H                     0.134331      -0.018526
     11 H                     0.142607       0.003526
     12 C                    -0.131062       0.342579
     13 H                     0.134434      -0.018130
  --------------------------------------------------------
  Sum of atomic charges =    -0.000000

                    Cartesian Multipole Moments
 -----------------------------------------------------------------
    Charge (ESU x 10^10)
                 0.0000
    Dipole Moment (Debye)
         X      -0.5274      Y      -2.1630      Z       0.2854
       Tot       2.2446
    Quadrupole Moments (Debye-Ang)
        XX     -35.4225     XY      -1.9771     YY     -41.8140
        XZ      -2.1664     YZ       0.4785     ZZ     -42.7661

 Total job time:  19.30s(wall), 53.95s(cpu)
        *  Thank you very much for using Q-Chem.  Have a nice day.  *
