 Q-Chem 5.0, Q-Chem, Inc., Pleasanton, CA (2017)
 Q-Chem 5.0.2 for Intel X86 EM64T Linux

User input:
--------------------------------------------------------------
$molecule
0 2
C        1.3542003206    0.3995924955    0.2294977592
C        0.8129720329   -0.9194641018   -0.2379946595
C       -0.5249928943   -0.8761636033   -0.8946753331
C       -1.0756454759    0.3189177532   -0.0458480461
C       -0.4066826333    1.5890078753   -0.3993323935
N        0.8845153309    1.6115391608   -0.1974919676
H        2.2556847122    0.3665544144    0.8331293332
H        1.4292310131   -1.8109877188   -0.2007777914
H       -1.0836612633   -1.8110997420   -0.9272774856
H       -2.1460786261    0.3339818740    0.1475323030
H       -0.9238215620    2.4384986760   -0.8347693021
C       -0.1589904230   -0.5299168238    0.8419242501
H       -0.4776427313   -1.1508238068    1.6767884602
$end

$rem
method                b3lyp
basis                 6-31+g(d,p)
unrestricted          true
symmetry              off
sym_ignore            true
incdft                false
incfock               0
scf_convergence       8
thresh                14
jobtype               rpath
scf_guess             core
scf_guess_mix         5
scf_algorithm         diis
max_scf_cycles        100
rpath_direction       1
rpath_tol_displacement 1000
rpath_max_cycles      50
geom_opt_max_cycles   300
geom_opt_hessian      read
$end

--------------------------------------------------------------

   22    -286.8141289545      7.80E-09 Convergence criterion met
 Total energy in the final basis set = -286.81412895
   23    -286.8174888343      4.78E-09 Convergence criterion met
 Total energy in the final basis set = -286.81748883
   23    -286.8174739665      5.10E-09 Convergence criterion met
 Total energy in the final basis set = -286.81747397
   23    -286.8175005928      4.92E-09 Convergence criterion met
 Total energy in the final basis set = -286.81750059
   22    -286.8253827958      5.99E-09 Convergence criterion met
 Total energy in the final basis set = -286.82538280
   22    -286.8253755468      6.32E-09 Convergence criterion met
 Total energy in the final basis set = -286.82537555
   22    -286.8254061262      5.55E-09 Convergence criterion met
 Total energy in the final basis set = -286.82540613
   21    -286.8343971012      9.77E-09 Convergence criterion met
 Total energy in the final basis set = -286.85667799
   21    -286.8568973739      4.11E-09 Convergence criterion met
 Total energy in the final basis set = -286.85689737
   21    -286.8567603254      3.60E-09 Convergence criterion met
 Total energy in the final basis set = -286.85676033
   21    -286.8569102666      3.07E-09 Convergence criterion met
 Total energy in the final basis set = -286.85691027
   20    -286.8502574820      8.46E-09 Convergence criterion met
 Total energy in the final basis set = -286.85025748
   21    -286.8569115943      3.92E-09 Convergence criterion met
 Total energy in the final basis set = -286.85691159
   21    -286.8569115718      3.89E-09 Convergence criterion met
 Total energy in the final basis set = -286.85691157
   21    -286.8569118710      3.91E-09 Convergence criterion met
 Total energy in the final basis set = -286.85691187

                    Orbital Energies (a.u.)
 --------------------------------------------------------------

 Alpha MOs
 -- Occupied --
-14.334 -10.233 -10.231 -10.223 -10.221 -10.220 -10.211  -0.980
 -0.867  -0.760  -0.674  -0.615  -0.583  -0.549  -0.518  -0.464
 -0.450  -0.420  -0.410  -0.369  -0.344  -0.317  -0.282  -0.271
 -0.180

 Beta MOs
 -- Occupied --
-14.334 -10.233 -10.231 -10.221 -10.221 -10.220 -10.199  -0.976
 -0.862  -0.753  -0.661  -0.611  -0.579  -0.544  -0.511  -0.458
 -0.446  -0.415  -0.406  -0.360  -0.340  -0.305  -0.275  -0.266

          Ground-State Mulliken Net Atomic Charges

     Atom                 Charge (a.u.)    Spin (a.u.)
  --------------------------------------------------------
      1 C                    -0.255005       0.012501
      2 C                    -0.108205      -0.098893
      3 C                    -0.109767       0.999065
      4 C                    -0.111613      -0.085151
      5 C                    -0.010918      -0.002706
      6 N                    -0.177350       0.026667
      7 H                     0.144930       0.003248
      8 H                     0.140157       0.000300
      9 H                     0.136753      -0.039557
     10 H                     0.131424       0.008092
     11 H                     0.131965       0.001600
     12 C                    -0.047578       0.167024
     13 H                     0.135206       0.007810
  --------------------------------------------------------
  Sum of atomic charges =    -0.000000

                    Cartesian Multipole Moments
 -----------------------------------------------------------------
    Charge (ESU x 10^10)
                -0.0000
    Dipole Moment (Debye)
         X      -1.5487      Y      -2.1089      Z       1.2981
       Tot       2.9208
    Quadrupole Moments (Debye-Ang)
        XX     -39.3714     XY      -4.7765     YY     -43.5755
        XZ       2.1752     YZ      -0.0238     ZZ     -42.2855

             Standard Nuclear Orientation (Angstroms)
    I     Atom           X                Y                Z
 ----------------------------------------------------------------
    1      C       1.3542003206     0.3995924955     0.2294977592
    2      C       0.8129720329    -0.9194641018    -0.2379946595
    3      C      -0.5249928943    -0.8761636033    -0.8946753331
    4      C      -1.0756454759     0.3189177532    -0.0458480461
    5      C      -0.4066826333     1.5890078753    -0.3993323935
    6      N       0.8845153309     1.6115391608    -0.1974919676
    7      H       2.2556847122     0.3665544144     0.8331293332
    8      H       1.4292310131    -1.8109877188    -0.2007777914
    9      H      -1.0836612633    -1.8110997420    -0.9272774856
   10      H      -2.1460786261     0.3339818740     0.1475323030
   11      H      -0.9238215620     2.4384986760    -0.8347693021
   12      C      -0.1589904230    -0.5299168238     0.8419242501
   13      H      -0.4776427313    -1.1508238068     1.6767884602
 ----------------------------------------------------------------

 Total job time:  14953.85s(wall), 38849.57s(cpu)
        *  Thank you very much for using Q-Chem.  Have a nice day.  *
