 Q-Chem 5.0, Q-Chem, Inc., Pleasanton, CA (2017)
 Q-Chem 5.0.2 for Intel X86 EM64T Linux

User input:
--------------------------------------------------------------
$molecule
0 2
C        1.1909420969    0.3158280614    0.4358416359
C        0.7239979418   -1.0113468543   -0.2272494047
C       -0.4947228323   -0.8051748399   -1.0238608301
C       -1.0636470897    0.2051529878   -0.0143736678
C       -0.4248352283    1.5303154158   -0.4058552545
N        0.8399893422    1.5707827307   -0.1965287622
H        2.1488000683    0.2704696361    0.9421780956
H        1.4012792655   -1.8574149507   -0.2618611199
H       -1.0685429287   -1.5944152477   -1.4944399934
H       -2.1321329853    0.1953191014    0.1992017111
H       -0.9427831000    2.3284006472   -0.9333011357
C       -0.0094163583   -0.3726546841    0.9925012636
H       -0.1689281921   -0.7752620037    1.9877474619
$end

$rem
method                b3lyp
basis                 6-31+g(d,p)
unrestricted          true
symmetry              off
sym_ignore            true
incdft                false
incfock               0
scf_convergence       8
thresh                14
jobtype               sp
scf_guess             core
scf_guess_mix         5
scf_algorithm         diis
max_scf_cycles        100
$end

--------------------------------------------------------------

             Standard Nuclear Orientation (Angstroms)
    I     Atom           X                Y                Z
 ----------------------------------------------------------------
    1      C       1.1909420969     0.3158280614     0.4358416359
    2      C       0.7239979418    -1.0113468543    -0.2272494047
    3      C      -0.4947228323    -0.8051748399    -1.0238608301
    4      C      -1.0636470897     0.2051529878    -0.0143736678
    5      C      -0.4248352283     1.5303154158    -0.4058552545
    6      N       0.8399893422     1.5707827307    -0.1965287622
    7      H       2.1488000683     0.2704696361     0.9421780956
    8      H       1.4012792655    -1.8574149507    -0.2618611199
    9      H      -1.0685429287    -1.5944152477    -1.4944399934
   10      H      -2.1321329853     0.1953191014     0.1992017111
   11      H      -0.9427831000     2.3284006472    -0.9333011357
   12      C      -0.0094163583    -0.3726546841     0.9925012636
   13      H      -0.1689281921    -0.7752620037     1.9877474619
 ----------------------------------------------------------------

   21    -286.8568974643      3.46E-09 Convergence criterion met
 Total energy in the final basis set = -286.85689746

                    Orbital Energies (a.u.)
 --------------------------------------------------------------

 Alpha MOs
 -- Occupied --
-14.334 -10.233 -10.231 -10.223 -10.221 -10.220 -10.211  -0.980
 -0.867  -0.760  -0.674  -0.615  -0.583  -0.549  -0.518  -0.464
 -0.450  -0.420  -0.410  -0.369  -0.344  -0.317  -0.282  -0.271
 -0.181

 Beta MOs
 -- Occupied --
-14.334 -10.233 -10.231 -10.221 -10.221 -10.220 -10.199  -0.976
 -0.861  -0.753  -0.661  -0.611  -0.579  -0.544  -0.511  -0.458
 -0.446  -0.415  -0.406  -0.360  -0.340  -0.305  -0.275  -0.266

          Ground-State Mulliken Net Atomic Charges

     Atom                 Charge (a.u.)    Spin (a.u.)
  --------------------------------------------------------
      1 C                    -0.255089       0.012358
      2 C                    -0.108283      -0.098652
      3 C                    -0.109477       0.998907
      4 C                    -0.112026      -0.084970
      5 C                    -0.010852      -0.002759
      6 N                    -0.177366       0.026654
      7 H                     0.144927       0.003246
      8 H                     0.140147       0.000292
      9 H                     0.136739      -0.039527
     10 H                     0.131435       0.008073
     11 H                     0.132004       0.001597
     12 C                    -0.047363       0.166975
     13 H                     0.135205       0.007806
  --------------------------------------------------------
  Sum of atomic charges =    -0.000000

                    Cartesian Multipole Moments
 -----------------------------------------------------------------
    Charge (ESU x 10^10)
                 0.0000
    Dipole Moment (Debye)
         X      -1.5599      Y      -2.1301      Z       1.2503
       Tot       2.9213
    Quadrupole Moments (Debye-Ang)
        XX     -39.4074     XY      -4.7835     YY     -43.6472
        XZ       2.1923     YZ      -0.1118     ZZ     -42.2044

 Total job time:  43.30s(wall), 110.19s(cpu)
        *  Thank you very much for using Q-Chem.  Have a nice day.  *
