 Q-Chem 5.0, Q-Chem, Inc., Pleasanton, CA (2017)
 Q-Chem 5.0.2 for Intel X86 EM64T Linux

User input:
--------------------------------------------------------------
$molecule
0 2
C        1.5714992977    0.4699354594   -0.0191522498
C        0.8306312997   -0.8057049063    0.1290701805
C       -0.4909292986   -0.9710269034   -0.6014339603
C       -1.1230461811    0.3026544247   -0.0581226763
C       -0.3858008942    1.5717509268   -0.2680501095
N        0.9453517097    1.6276284484   -0.2287936804
H        2.6555285026    0.4878354686    0.0658372362
H        1.4239405009   -1.7079435178    0.2649047123
H       -0.8701056330   -1.7493097681   -1.2479479139
H       -2.2099494708    0.3541980410   -0.0754913401
H       -0.9259538775    2.4906061185   -0.4842228452
C       -0.5119731835   -0.7554550832    0.8444328917
H       -0.9091927723   -1.3151687085    1.6789697544
$end

$rem
method                b3lyp
basis                 6-31+g(d,p)
unrestricted          true
symmetry              off
sym_ignore            true
incdft                false
incfock               0
scf_convergence       6
thresh                14
jobtype               sp
scf_guess             read
scf_algorithm         diis
max_scf_cycles        100
stability_analysis    true
max_cis_cycles        100
cis_n_roots           4
$end

--------------------------------------------------------------

             Standard Nuclear Orientation (Angstroms)
    I     Atom           X                Y                Z
 ----------------------------------------------------------------
    1      C       1.5714992977     0.4699354594    -0.0191522498
    2      C       0.8306312997    -0.8057049063     0.1290701805
    3      C      -0.4909292986    -0.9710269034    -0.6014339603
    4      C      -1.1230461811     0.3026544247    -0.0581226763
    5      C      -0.3858008942     1.5717509268    -0.2680501095
    6      N       0.9453517097     1.6276284484    -0.2287936804
    7      H       2.6555285026     0.4878354686     0.0658372362
    8      H       1.4239405009    -1.7079435178     0.2649047123
    9      H      -0.8701056330    -1.7493097681    -1.2479479139
   10      H      -2.2099494708     0.3541980410    -0.0754913401
   11      H      -0.9259538775     2.4906061185    -0.4842228452
   12      C      -0.5119731835    -0.7554550832     0.8444328917
   13      H      -0.9091927723    -1.3151687085     1.6789697544
 ----------------------------------------------------------------

    2    -286.8792598887      2.93E-09 Convergence criterion met
 Total energy in the final basis set = -286.87925989

         TDDFT/TDA Excitation Energies
 ---------------------------------------------------

 Excited state   1: excitation energy (eV) =    2.8225
 Total energy for state  1:                  -286.77553525 au
    <S**2>     :  0.7805
    Trans. Mom.: -0.0009 X  -0.0014 Y   0.0002 Z
    Strength   :     0.0000001816
    D( 24) --> S(  1) amplitude =  0.9970 beta

 Excited state   2: excitation energy (eV) =    3.5308
 Total energy for state  2:                  -286.74950595 au
    <S**2>     :  0.7686
    Trans. Mom.: -0.3926 X   0.2234 Y  -0.0320 Z
    Strength   :     0.0177344302
    S(  1) --> V(  1) amplitude =  0.9208 alpha
    S(  1) --> V(  5) amplitude =  0.1675 alpha
    D( 23) --> S(  1) amplitude =  0.3009 beta

 Excited state   3: excitation energy (eV) =    4.1700
 Total energy for state  3:                  -286.72601541 au
    <S**2>     :  0.7909
    Trans. Mom.:  0.0051 X   0.0084 Y  -0.0019 Z
    Strength   :     0.0000102176
    S(  1) --> V(  2) amplitude =  0.9916 alpha

 Excited state   4: excitation energy (eV) =    4.5480
 Total energy for state  4:                  -286.71212483 au
    <S**2>     :  2.4766
    Trans. Mom.:  0.0306 X  -0.0272 Y  -0.0676 Z
    Strength   :     0.0006952094
    D( 24) --> V(  1) amplitude = -0.8439 alpha
    D( 24) --> V(  5) amplitude = -0.2260 alpha
    D( 24) --> V(  2) amplitude = -0.3600 beta
    D( 24) --> V(  5) amplitude =  0.1720 beta

 ---------------------------------------------------

                    Orbital Energies (a.u.)
 --------------------------------------------------------------

 Alpha MOs
 -- Occupied --
-14.331 -10.226 -10.226 -10.226 -10.225 -10.225 -10.225  -0.970
 -0.907  -0.760  -0.652  -0.645  -0.597  -0.553  -0.490  -0.482
 -0.473  -0.417  -0.404  -0.373  -0.348  -0.310  -0.308  -0.239
 -0.184

 Beta MOs
 -- Occupied --
-14.334 -10.226 -10.226 -10.223 -10.223 -10.218 -10.218  -0.966
 -0.905  -0.748  -0.641  -0.640  -0.592  -0.550  -0.484  -0.476
 -0.472  -0.413  -0.387  -0.370  -0.333  -0.309  -0.305  -0.239

          Ground-State Mulliken Net Atomic Charges

     Atom                 Charge (a.u.)    Spin (a.u.)
  --------------------------------------------------------
      1 C                    -0.102096       0.605304
      2 C                    -0.172537      -0.050673
      3 C                    -0.014634       0.081370
      4 C                    -0.172442      -0.050513
      5 C                    -0.100730       0.605498
      6 N                    -0.216193      -0.201458
      7 H                     0.124253      -0.032265
      8 H                     0.130459       0.000798
      9 H                     0.141359      -0.003998
     10 H                     0.130377       0.000794
     11 H                     0.124263      -0.032280
     12 C                    -0.013514       0.081420
     13 H                     0.141436      -0.003999
  --------------------------------------------------------
  Sum of atomic charges =    -0.000000

                    Cartesian Multipole Moments
 -----------------------------------------------------------------
    Charge (ESU x 10^10)
                 0.0000
    Dipole Moment (Debye)
         X      -1.6232      Y      -2.7940      Z       0.3921
       Tot       3.2550
    Quadrupole Moments (Debye-Ang)
        XX     -38.6999     XY      -4.0806     YY     -43.5671
        XZ       0.8692     YZ      -0.0303     ZZ     -42.5675

 Total job time:  222.56s(wall), 199.38s(cpu)
        *  Thank you very much for using Q-Chem.  Have a nice day.  *
