 Q-Chem 5.0, Q-Chem, Inc., Pleasanton, CA (2017)
 Q-Chem 5.0.2 for Intel X86 EM64T Linux

User input:
--------------------------------------------------------------
$molecule
0 2
C        1.3542003206    0.3995924955    0.2294977592
C        0.8129720329   -0.9194641018   -0.2379946595
C       -0.5249928943   -0.8761636033   -0.8946753331
C       -1.0756454759    0.3189177532   -0.0458480461
C       -0.4066826333    1.5890078753   -0.3993323935
N        0.8845153309    1.6115391608   -0.1974919676
H        2.2556847122    0.3665544144    0.8331293332
H        1.4292310131   -1.8109877188   -0.2007777914
H       -1.0836612633   -1.8110997420   -0.9272774856
H       -2.1460786261    0.3339818740    0.1475323030
H       -0.9238215620    2.4384986760   -0.8347693021
C       -0.1589904230   -0.5299168238    0.8419242501
H       -0.4776427313   -1.1508238068    1.6767884602
$end

$rem
method                b3lyp
basis                 6-31+g(d,p)
unrestricted          true
symmetry              off
sym_ignore            true
incdft                false
incfock               0
scf_convergence       8
thresh                14
jobtype               freq
scf_guess             read
scf_algorithm         diis
max_scf_cycles        100
$end

--------------------------------------------------------------

             Standard Nuclear Orientation (Angstroms)
    I     Atom           X                Y                Z
 ----------------------------------------------------------------
    1      C       1.3542003206     0.3995924955     0.2294977592
    2      C       0.8129720329    -0.9194641018    -0.2379946595
    3      C      -0.5249928943    -0.8761636033    -0.8946753331
    4      C      -1.0756454759     0.3189177532    -0.0458480461
    5      C      -0.4066826333     1.5890078753    -0.3993323935
    6      N       0.8845153309     1.6115391608    -0.1974919676
    7      H       2.2556847122     0.3665544144     0.8331293332
    8      H       1.4292310131    -1.8109877188    -0.2007777914
    9      H      -1.0836612633    -1.8110997420    -0.9272774856
   10      H      -2.1460786261     0.3339818740     0.1475323030
   11      H      -0.9238215620     2.4384986760    -0.8347693021
   12      C      -0.1589904230    -0.5299168238     0.8419242501
   13      H      -0.4776427313    -1.1508238068     1.6767884602
 ----------------------------------------------------------------

    2    -286.8141289546      2.05E-10 Convergence criterion met
 Total energy in the final basis set = -286.81412895

                    Orbital Energies (a.u.)
 --------------------------------------------------------------

 Alpha MOs
 -- Occupied --
-14.331 -10.252 -10.246 -10.232 -10.230 -10.228 -10.219  -0.979
 -0.888  -0.767  -0.655  -0.636  -0.613  -0.557  -0.506  -0.461
 -0.450  -0.433  -0.422  -0.380  -0.374  -0.321  -0.280  -0.257
 -0.137

 Beta MOs
 -- Occupied --
-14.331 -10.253 -10.243 -10.228 -10.227 -10.224 -10.215  -0.974
 -0.883  -0.760  -0.648  -0.627  -0.610  -0.553  -0.501  -0.458
 -0.443  -0.430  -0.412  -0.374  -0.366  -0.303  -0.273  -0.247

          Ground-State Mulliken Net Atomic Charges

     Atom                 Charge (a.u.)    Spin (a.u.)
  --------------------------------------------------------
      1 C                    -0.246368       0.249487
      2 C                    -0.062128       0.043371
      3 C                    -0.143948       0.608052
      4 C                    -0.264555      -0.043961
      5 C                     0.018479       0.245058
      6 N                    -0.198880      -0.007505
      7 H                     0.142954      -0.009302
      8 H                     0.150712      -0.007245
      9 H                     0.152779      -0.004765
     10 H                     0.139643      -0.002844
     11 H                     0.128473      -0.013470
     12 C                     0.034159      -0.071955
     13 H                     0.148679       0.015078
  --------------------------------------------------------
  Sum of atomic charges =    -0.000000

                    Cartesian Multipole Moments
 -----------------------------------------------------------------
    Charge (ESU x 10^10)
                 0.0000
    Dipole Moment (Debye)
         X      -1.3317      Y      -2.8890      Z       1.3596
       Tot       3.4595
    Quadrupole Moments (Debye-Ang)
        XX     -39.2562     XY      -4.6166     YY     -43.4928
        XZ       1.1180     YZ      -1.3536     ZZ     -44.2180

 Frequency:      -925.62                 139.60                 441.46
 Force Cnst:      2.7518                 0.0619                 0.3113
 Red. Mass:       5.4514                 5.3901                 2.7114
 IR Intens:      242.267                 31.607                  1.484
 Frequency:       463.81                 648.75                 666.57
 Force Cnst:      0.7359                 1.4395                 0.7411
 Red. Mass:       5.8058                 5.8049                 2.8311
 IR Intens:        5.713                 14.878                 37.231
 Frequency:       693.83                 760.39                 786.67
 Force Cnst:      0.8336                 0.5014                 0.5656
 Red. Mass:       2.9390                 1.4717                 1.5512
 IR Intens:        6.382                 20.045                 48.136
 Frequency:       815.01                 856.27                 874.38
 Force Cnst:      0.6507                 0.6297                 0.9004
 Red. Mass:       1.6628                 1.4576                 1.9990
 IR Intens:        3.906                  6.275                 54.345
 Frequency:       913.80                 939.24                 983.87
 Force Cnst:      0.7854                 0.8742                 1.3235
 Red. Mass:       1.5963                 1.6819                 2.3206
 IR Intens:        1.991                 14.300                  2.455
 Frequency:      1020.16                1050.63                1065.42
 Force Cnst:      1.1861                 1.2526                 1.0308
 Red. Mass:       1.9344                 1.9260                 1.5413
 IR Intens:        1.740                  4.954                  4.376
 Frequency:      1149.71                1171.11                1193.26
 Force Cnst:      1.8801                 1.0675                 1.3642
 Red. Mass:       2.4140                 1.3211                 1.6262
 IR Intens:       12.239                  7.056                 11.621
 Frequency:      1230.36                1315.83                1336.34
 Force Cnst:      1.6786                 1.4287                 2.0775
 Red. Mass:       1.8820                 1.4005                 1.9745
 IR Intens:        7.859                  8.041                 12.719
 Frequency:      1363.41                1396.94                1532.03
 Force Cnst:      2.2755                 2.5498                 6.0264
 Red. Mass:       2.0777                 2.2177                 4.3579
 IR Intens:       10.071                  4.232                 70.435
 Frequency:      3145.05                3160.93                3171.45
 Force Cnst:      6.3413                 6.4172                 6.4703
 Red. Mass:       1.0881                 1.0901                 1.0918
 IR Intens:       12.171                  7.406                 17.029
 Frequency:      3199.17                3205.99                3211.76
 Force Cnst:      6.5623                 6.6147                 6.6557
 Red. Mass:       1.0883                 1.0923                 1.0951
 IR Intens:        7.157                 14.802                  4.715

 STANDARD THERMODYNAMIC QUANTITIES AT   298.15 K  AND     1.00 ATM

   This Molecule has  1 Imaginary Frequencies
   Zero point vibrational energy:       62.763 kcal/mol

   Atom    1 Element C  Has Mass   12.00000
   Atom    2 Element C  Has Mass   12.00000
   Atom    3 Element C  Has Mass   12.00000
   Atom    4 Element C  Has Mass   12.00000
   Atom    5 Element C  Has Mass   12.00000
   Atom    6 Element N  Has Mass   14.00307
   Atom    7 Element H  Has Mass    1.00783
   Atom    8 Element H  Has Mass    1.00783
   Atom    9 Element H  Has Mass    1.00783
   Atom   10 Element H  Has Mass    1.00783
   Atom   11 Element H  Has Mass    1.00783
   Atom   12 Element C  Has Mass   12.00000
   Atom   13 Element H  Has Mass    1.00783
   Molecular Mass:    92.050050 amu
   Principal axes and moments of inertia in amu*Bohr^2:
                             1           2           3
    Eigenvalues --      348.53252   457.88607   632.46255
          X               0.22400     0.95629    -0.18797
          Y               0.97420    -0.21426     0.07089
          Z              -0.02752     0.19900     0.97961
   Rotational Symmetry Number is   1
   The Molecule is an Asymmetric Top
   Translational Enthalpy:        0.889 kcal/mol
   Rotational Enthalpy:           0.889 kcal/mol
   Vibrational Enthalpy:         64.190 kcal/mol
   gas constant (RT):             0.592 kcal/mol
   Translational Entropy:        39.471  cal/mol.K
   Rotational Entropy:           26.115  cal/mol.K
   Vibrational Entropy:           7.258  cal/mol.K

   Total Enthalpy:               66.560 kcal/mol
   Total Entropy:                72.844  cal/mol.K

 Total job time:  611.81s(wall), 564.13s(cpu)
        *  Thank you very much for using Q-Chem.  Have a nice day.  *
