 Q-Chem 5.0, Q-Chem, Inc., Pleasanton, CA (2017)
 Q-Chem 5.0.2 for Intel X86 EM64T Linux

User input:
--------------------------------------------------------------
$molecule
0 2
C        1.3711856768    0.3868602538    0.2355029499
C        0.8002638969   -0.9477703272   -0.1724502981
C       -0.4941735811   -0.9013843347   -0.8609604505
C       -1.0666074416    0.2769533464   -0.0362311649
C       -0.4034644894    1.5669372487   -0.3780924200
N        0.8795386605    1.5940359911   -0.1992350254
H        2.4038512620    0.3831752873    0.5840751396
H        1.5155450733   -1.7656944508   -0.2283480979
H       -1.0360638277   -1.8251249241   -1.0486958219
H       -2.1610363870    0.3270009432    0.0389772020
H       -0.9334835374    2.4530820122   -0.7141074034
C       -0.2122962373   -0.5028562398    0.9852215075
H       -0.7241712676   -1.0855783533    1.7850490099
$end

$rem
method                b3lyp
basis                 6-31g(d)
unrestricted          true
symmetry              off
sym_ignore            true
incdft                false
incfock               0
scf_convergence       8
thresh                14
jobtype               ts
scf_guess             read
scf_algorithm         diis
max_scf_cycles        100
geom_opt_max_cycles   500
geom_opt_dmax         100
geom_opt_tol_gradient 10
geom_opt_hessian      read
$end

--------------------------------------------------------------

    2    -286.7779100149      9.37E-10 Convergence criterion met
 Total energy in the final basis set = -286.77791001
   15    -286.7806826038      5.08E-09 Convergence criterion met
 Total energy in the final basis set = -286.78068260
   15    -286.7830283382      4.74E-09 Convergence criterion met
 Total energy in the final basis set = -286.78302834
   15    -286.7849523594      5.80E-09 Convergence criterion met
 Total energy in the final basis set = -286.78495236
   15    -286.7865336839      3.71E-09 Convergence criterion met
 Total energy in the final basis set = -286.78653368
   15    -286.7878384458      3.95E-09 Convergence criterion met
 Total energy in the final basis set = -286.78783845
   14    -286.7889125098      9.25E-09 Convergence criterion met
 Total energy in the final basis set = -286.78891251
   14    -286.7897869730      9.00E-09 Convergence criterion met
   15    -286.7910152865      4.78E-09 Convergence criterion met
 Total energy in the final basis set = -286.79101529
   15    -286.7913948044      4.88E-09 Convergence criterion met
 Total energy in the final basis set = -286.79139480
   15    -286.7916305342      4.84E-09 Convergence criterion met
 Total energy in the final basis set = -286.79163053
   15    -286.7917315022      4.82E-09 Convergence criterion met
 Total energy in the final basis set = -286.79173150
   13    -286.7917374842      8.14E-09 Convergence criterion met
 Total energy in the final basis set = -286.79173748
   11    -286.7917375978      3.10E-09 Convergence criterion met
 Total energy in the final basis set = -286.79173760

             Standard Nuclear Orientation (Angstroms)
    I     Atom           X                Y                Z
 ----------------------------------------------------------------
    1      C       1.3586352266     0.4036884407     0.2240864355
    2      C       0.8089703589    -0.9180285992    -0.2332450540
    3      C      -0.5244386742    -0.8717108452    -0.9057546372
    4      C      -1.0747660992     0.3169841336    -0.0428655972
    5      C      -0.4047779643     1.5870781442    -0.3957180554
    6      N       0.8856618472     1.6126266754    -0.1978300457
    7      H       2.2611051455     0.3712494226     0.8274358536
    8      H       1.4263197578    -1.8096138920    -0.1941284227
    9      H      -1.0813423222    -1.8088943857    -0.9204125873
   10      H      -2.1460531454     0.3331709506     0.1491896865
   11      H      -0.9225507945     2.4349849892    -0.8355683221
   12      C      -0.1611721598    -0.5332232190     0.8429671317
   13      H      -0.4865033758    -1.1586753625     1.6725487411
 ----------------------------------------------------------------

   11    -286.7917376271      2.89E-09 Convergence criterion met
 Total energy in the final basis set = -286.79173763
 Final energy is   -286.791737627117
 **  OPTIMIZATION CONVERGED  **

                    Orbital Energies (a.u.)
 --------------------------------------------------------------

 Alpha MOs
 -- Occupied --
-14.316 -10.239 -10.234 -10.218 -10.218 -10.216 -10.208  -0.966
 -0.875  -0.755  -0.644  -0.625  -0.603  -0.547  -0.497  -0.450
 -0.439  -0.423  -0.412  -0.370  -0.363  -0.310  -0.268  -0.244
 -0.126

 Beta MOs
 -- Occupied --
-14.316 -10.240 -10.231 -10.216 -10.216 -10.210 -10.204  -0.961
 -0.871  -0.748  -0.636  -0.616  -0.600  -0.543  -0.492  -0.446
 -0.432  -0.419  -0.401  -0.363  -0.355  -0.290  -0.261  -0.234

          Ground-State Mulliken Net Atomic Charges

     Atom                 Charge (a.u.)    Spin (a.u.)
  --------------------------------------------------------
      1 C                     0.025795       0.248606
      2 C                    -0.172149       0.064495
      3 C                    -0.105953       0.578891
      4 C                    -0.250404       0.015692
      5 C                     0.096698       0.255066
      6 N                    -0.373612      -0.013102
      7 H                     0.152465      -0.010439
      8 H                     0.158554      -0.007332
      9 H                     0.146090      -0.004913
     10 H                     0.148687      -0.003155
     11 H                     0.138934      -0.013945
     12 C                    -0.124653      -0.128145
     13 H                     0.159549       0.018282
  --------------------------------------------------------
  Sum of atomic charges =    -0.000000

                    Cartesian Multipole Moments
 -----------------------------------------------------------------
    Charge (ESU x 10^10)
                -0.0000
    Dipole Moment (Debye)
         X      -1.2360      Y      -2.6324      Z       1.2934
       Tot       3.1828
    Quadrupole Moments (Debye-Ang)
        XX     -38.2033     XY      -3.9749     YY     -41.8123
        XZ       0.9888     YZ      -1.2944     ZZ     -42.5215

 Total job time:  633.12s(wall), 711.86s(cpu)
        *  Thank you very much for using Q-Chem.  Have a nice day.  *
