 Q-Chem 5.0, Q-Chem, Inc., Pleasanton, CA (2017)
 Q-Chem 5.0.2 for Intel X86 EM64T Linux

User input:
--------------------------------------------------------------
$molecule
0 2
C        1.3586352266    0.4036884407    0.2240864355
C        0.8089703589   -0.9180285992   -0.2332450540
C       -0.5244386742   -0.8717108452   -0.9057546372
C       -1.0747660992    0.3169841336   -0.0428655972
C       -0.4047779643    1.5870781442   -0.3957180554
N        0.8856618472    1.6126266754   -0.1978300457
H        2.2611051455    0.3712494226    0.8274358536
H        1.4263197578   -1.8096138920   -0.1941284227
H       -1.0813423222   -1.8088943857   -0.9204125873
H       -2.1460531454    0.3331709506    0.1491896865
H       -0.9225507945    2.4349849892   -0.8355683221
C       -0.1611721598   -0.5332232190    0.8429671317
H       -0.4865033758   -1.1586753625    1.6725487411
$end

$rem
method                b3lyp
basis                 6-31g(d)
unrestricted          true
symmetry              off
sym_ignore            true
incdft                false
incfock               0
scf_convergence       6
thresh                14
jobtype               sp
scf_guess             read
scf_algorithm         diis
max_scf_cycles        100
stability_analysis    true
max_cis_cycles        100
cis_n_roots           4
$end

--------------------------------------------------------------

             Standard Nuclear Orientation (Angstroms)
    I     Atom           X                Y                Z
 ----------------------------------------------------------------
    1      C       1.3586352266     0.4036884407     0.2240864355
    2      C       0.8089703589    -0.9180285992    -0.2332450540
    3      C      -0.5244386742    -0.8717108452    -0.9057546372
    4      C      -1.0747660992     0.3169841336    -0.0428655972
    5      C      -0.4047779643     1.5870781442    -0.3957180554
    6      N       0.8856618472     1.6126266754    -0.1978300457
    7      H       2.2611051455     0.3712494226     0.8274358536
    8      H       1.4263197578    -1.8096138920    -0.1941284227
    9      H      -1.0813423222    -1.8088943857    -0.9204125873
   10      H      -2.1460531454     0.3331709506     0.1491896865
   11      H      -0.9225507945     2.4349849892    -0.8355683221
   12      C      -0.1611721598    -0.5332232190     0.8429671317
   13      H      -0.4865033758    -1.1586753625     1.6725487411
 ----------------------------------------------------------------

    2    -286.7917376271      9.80E-10 Convergence criterion met
 Total energy in the final basis set = -286.79173763

         TDDFT/TDA Excitation Energies
 ---------------------------------------------------

 Excited state   1: excitation energy (eV) =    1.9010
 Total energy for state  1:                  -286.72187753 au
    <S**2>     :  0.7839
    Trans. Mom.: -0.1296 X  -0.6407 Y  -0.1364 Z
    Strength   :     0.0207638962
    S(  1) --> V(  1) amplitude =  0.9641 alpha
    D( 24) --> S(  1) amplitude = -0.2040 beta

 Excited state   2: excitation energy (eV) =    3.5688
 Total energy for state  2:                  -286.66058834 au
    <S**2>     :  0.8691
    Trans. Mom.: -0.2824 X   0.2628 Y  -0.0717 Z
    Strength   :     0.0134583217
    S(  1) --> V(  2) amplitude =  0.9541 alpha

 Excited state   3: excitation energy (eV) =    3.9392
 Total energy for state  3:                  -286.64697303 au
    <S**2>     :  1.7819
    Trans. Mom.: -0.0869 X  -0.2949 Y  -0.0867 Z
    Strength   :     0.0098506142
    D( 24) --> V(  1) amplitude =  0.4833 alpha
    S(  1) --> V(  2) amplitude =  0.1623 alpha
    D( 22) --> S(  1) amplitude = -0.1708 beta
    D( 23) --> S(  1) amplitude = -0.1591 beta
    D( 24) --> S(  1) amplitude =  0.7311 beta
    D( 24) --> V(  1) amplitude =  0.3031 beta

 Excited state   4: excitation energy (eV) =    4.4182
 Total energy for state  4:                  -286.62937196 au
    <S**2>     :  1.3020
    Trans. Mom.: -0.0872 X   0.0738 Y   0.0760 Z
    Strength   :     0.0020390071
    D( 24) --> V(  1) amplitude =  0.4377 alpha
    S(  1) --> V(  3) amplitude =  0.7151 alpha
    D( 24) --> S(  1) amplitude = -0.3301 beta
    D( 24) --> V(  1) amplitude =  0.3739 beta

 ---------------------------------------------------

                    Orbital Energies (a.u.)
 --------------------------------------------------------------

 Alpha MOs
 -- Occupied --
-14.316 -10.239 -10.234 -10.218 -10.218 -10.216 -10.208  -0.966
 -0.875  -0.755  -0.644  -0.625  -0.603  -0.547  -0.497  -0.450
 -0.439  -0.423  -0.412  -0.370  -0.363  -0.310  -0.268  -0.244
 -0.126

 Beta MOs
 -- Occupied --
-14.316 -10.240 -10.231 -10.216 -10.216 -10.210 -10.204  -0.961
 -0.871  -0.748  -0.636  -0.616  -0.600  -0.543  -0.492  -0.446
 -0.432  -0.419  -0.401  -0.363  -0.355  -0.290  -0.261  -0.234

          Ground-State Mulliken Net Atomic Charges

     Atom                 Charge (a.u.)    Spin (a.u.)
  --------------------------------------------------------
      1 C                     0.025796       0.248607
      2 C                    -0.172149       0.064495
      3 C                    -0.105953       0.578891
      4 C                    -0.250404       0.015692
      5 C                     0.096698       0.255067
      6 N                    -0.373612      -0.013103
      7 H                     0.152465      -0.010439
      8 H                     0.158554      -0.007332
      9 H                     0.146090      -0.004913
     10 H                     0.148687      -0.003155
     11 H                     0.138934      -0.013945
     12 C                    -0.124653      -0.128145
     13 H                     0.159549       0.018282
  --------------------------------------------------------
  Sum of atomic charges =     0.000000

                    Cartesian Multipole Moments
 -----------------------------------------------------------------
    Charge (ESU x 10^10)
                 0.0000
    Dipole Moment (Debye)
         X      -1.2360      Y      -2.6324      Z       1.2934
       Tot       3.1828
    Quadrupole Moments (Debye-Ang)
        XX     -38.2033     XY      -3.9749     YY     -41.8123
        XZ       0.9888     YZ      -1.2944     ZZ     -42.5215

 Total job time:  168.10s(wall), 87.87s(cpu)
        *  Thank you very much for using Q-Chem.  Have a nice day.  *
