 Q-Chem 5.0, Q-Chem, Inc., Pleasanton, CA (2017)
 Q-Chem 5.0.2 for Intel X86 EM64T Linux

User input:
--------------------------------------------------------------
$molecule
0 2
C        1.4287593682    0.8425195606   -0.3250872097
C        0.2766459415   -1.4163105594   -0.2011434153
C       -0.9821599900   -1.0609185183    0.1815044956
C       -1.4663085310    0.2730374794    0.4321864887
C       -0.7711985315    1.4644581620    0.3445855300
N        0.5055704975    1.7716839771    0.0152833887
H        2.3961927978    1.2938132753   -0.5562728852
H        0.4722278096   -2.4767490943   -0.3472949383
H       -1.7075845728   -1.8610258723    0.3144518885
H       -2.5090420399    0.3578883204    0.7286078105
H       -1.3559728150    2.3548527029    0.5861931606
C        1.3907341015   -0.5349550234   -0.4358252828
H        2.3221359647   -1.0082944096   -0.7371890318
$end

$rem
method                b3lyp
basis                 6-31g(d)
unrestricted          true
symmetry              off
sym_ignore            true
incdft                false
incfock               0
scf_convergence       8
thresh                14
jobtype               opt
scf_guess             read
scf_algorithm         diis
max_scf_cycles        100
geom_opt_tol_gradient 600
geom_opt_tol_displacement 2400
geom_opt_tol_energy   200
geom_opt_max_cycles   100
$end

--------------------------------------------------------------

             Standard Nuclear Orientation (Angstroms)
    I     Atom           X                Y                Z
 ----------------------------------------------------------------
    1      C       1.4287593682     0.8425195606    -0.3250872097
    2      C       0.2766459415    -1.4163105594    -0.2011434153
    3      C      -0.9821599900    -1.0609185183     0.1815044956
    4      C      -1.4663085310     0.2730374794     0.4321864887
    5      C      -0.7711985315     1.4644581620     0.3445855300
    6      N       0.5055704975     1.7716839771     0.0152833887
    7      H       2.3961927978     1.2938132753    -0.5562728852
    8      H       0.4722278096    -2.4767490943    -0.3472949383
    9      H      -1.7075845728    -1.8610258723     0.3144518885
   10      H      -2.5090420399     0.3578883204     0.7286078105
   11      H      -1.3559728150     2.3548527029     0.5861931606
   12      C       1.3907341015    -0.5349550234    -0.4358252828
   13      H       2.3221359647    -1.0082944096    -0.7371890318
 ----------------------------------------------------------------

    2    -286.9243179979      1.10E-09 Convergence criterion met
 Total energy in the final basis set = -286.92431800
 Final energy is   -286.924317997874
 **  OPTIMIZATION CONVERGED  **

                    Orbital Energies (a.u.)
 --------------------------------------------------------------

 Alpha MOs
 -- Occupied --
-14.322 -10.232 -10.232 -10.212 -10.211 -10.201 -10.200  -0.922
 -0.818  -0.784  -0.693  -0.667  -0.551  -0.537  -0.518  -0.449
 -0.439  -0.414  -0.394  -0.386  -0.349  -0.322  -0.299  -0.251
 -0.161

 Beta MOs
 -- Occupied --
-14.314 -10.233 -10.233 -10.210 -10.210 -10.196 -10.196  -0.911
 -0.809  -0.777  -0.681  -0.665  -0.546  -0.535  -0.514  -0.447
 -0.438  -0.411  -0.383  -0.373  -0.348  -0.295  -0.276  -0.241

          Ground-State Mulliken Net Atomic Charges

     Atom                 Charge (a.u.)    Spin (a.u.)
  --------------------------------------------------------
      1 C                     0.035889      -0.113415
      2 C                    -0.110867       0.091524
      3 C                    -0.111523       0.096054
      4 C                    -0.131437       0.345608
      5 C                     0.035293      -0.111654
      6 N                    -0.423413       0.386832
      7 H                     0.142602       0.003442
      8 H                     0.141926      -0.006529
      9 H                     0.141883      -0.006749
     10 H                     0.134407      -0.018272
     11 H                     0.142648       0.003354
     12 C                    -0.131726       0.348193
     13 H                     0.134318      -0.018388
  --------------------------------------------------------
  Sum of atomic charges =     0.000000

                    Cartesian Multipole Moments
 -----------------------------------------------------------------
    Charge (ESU x 10^10)
                 0.0000
    Dipole Moment (Debye)
         X      -0.6147      Y      -2.1570      Z      -0.0181
       Tot       2.2429
    Quadrupole Moments (Debye-Ang)
        XX     -35.5412     XY      -1.9282     YY     -41.8130
        XZ      -2.3507     YZ       0.6673     ZZ     -42.6455

 Total job time:  15.74s(wall), 14.77s(cpu)
        *  Thank you very much for using Q-Chem.  Have a nice day.  *
