 Q-Chem 5.0, Q-Chem, Inc., Pleasanton, CA (2017)
 Q-Chem 5.0.2 for Intel X86 EM64T Linux

User input:
--------------------------------------------------------------
$molecule
0 2
C        0.0323354011   -0.5318852731   -0.1425790934
C        1.5581502613   -0.4987224907   -0.0361758984
C        2.3714477397   -1.3318815971   -0.6397513775
C       -1.3602315908    1.2889386344    0.1048715793
C       -1.3435322768    0.4249103373    1.2951205846
N       -0.5751515175   -0.6071782017    1.1970260081
H       -0.2672893449   -1.4309651605   -0.6982099671
H        1.9490515043    0.3013655335    0.5947974000
H        2.3009105776   -2.1896444090   -1.2979591369
H       -1.9383258056    2.1987825375   -0.0102784924
H       -1.9221201643    0.6059336445    2.1999768231
C       -0.5304462436    0.7146612875   -0.7851427860
H       -0.2747985402    1.0556851571   -1.7816956437
$end

$rem
method                b3lyp
basis                 6-31g(d)
unrestricted          true
symmetry              off
sym_ignore            true
incdft                false
incfock               0
scf_convergence       8
thresh                14
jobtype               opt
scf_guess             read
scf_algorithm         diis
max_scf_cycles        100
geom_opt_tol_gradient 600
geom_opt_tol_displacement 2400
geom_opt_tol_energy   200
geom_opt_max_cycles   100
$end

--------------------------------------------------------------

    2    -286.8505782439      2.46E-09 Convergence criterion met
 Total energy in the final basis set = -286.85057824
   11    -286.8505816574      3.73E-09 Convergence criterion met
 Total energy in the final basis set = -286.85058166

             Standard Nuclear Orientation (Angstroms)
    I     Atom           X                Y                Z
 ----------------------------------------------------------------
    1      C       0.0318207406    -0.5342777268    -0.1426373513
    2      C       1.5575050788    -0.4984218890    -0.0347654295
    3      C       2.3711287285    -1.3282267293    -0.6418153066
    4      C      -1.3588880983     1.2876466662     0.1040270435
    5      C      -1.3433600761     0.4243104766     1.2948691793
    6      N      -0.5764124795    -0.6088763175     1.1969118674
    7      H      -0.2664804173    -1.4325666778    -0.7001309565
    8      H       1.9449509581     0.3021943430     0.5975351171
    9      H       2.2976947565    -2.1869175101    -1.2976496591
   10      H      -1.9363828191     2.1981366472    -0.0108701429
   11      H      -1.9188173089     0.6093783980     2.2013186123
   12      C      -0.5295229346     0.7126181481    -0.7855017089
   13      H      -0.2732361285     1.0550021713    -1.7812912650
 ----------------------------------------------------------------

   10    -286.8505825863      4.56E-09 Convergence criterion met
 Total energy in the final basis set = -286.85058259
 Final energy is   -286.850582586326
 **  OPTIMIZATION CONVERGED  **

                    Orbital Energies (a.u.)
 --------------------------------------------------------------

 Alpha MOs
 -- Occupied --
-14.323 -10.230 -10.227 -10.209 -10.205 -10.202 -10.201  -0.946
 -0.791  -0.769  -0.704  -0.587  -0.563  -0.555  -0.514  -0.469
 -0.425  -0.411  -0.404  -0.374  -0.332  -0.283  -0.265  -0.252
 -0.234

 Beta MOs
 -- Occupied --
-14.323 -10.229 -10.227 -10.205 -10.204 -10.201 -10.194  -0.945
 -0.783  -0.767  -0.692  -0.577  -0.558  -0.551  -0.513  -0.462
 -0.416  -0.409  -0.401  -0.370  -0.328  -0.279  -0.264  -0.248

          Ground-State Mulliken Net Atomic Charges

     Atom                 Charge (a.u.)    Spin (a.u.)
  --------------------------------------------------------
      1 C                    -0.095534       0.072679
      2 C                    -0.075769      -0.163803
      3 C                    -0.194481       1.044300
      4 C                    -0.140970       0.003049
      5 C                     0.051980       0.008554
      6 N                    -0.364049      -0.003084
      7 H                     0.173512      -0.003397
      8 H                     0.157883       0.037383
      9 H                     0.160471       0.001740
     10 H                     0.142771       0.000374
     11 H                     0.145219       0.000651
     12 C                    -0.113571       0.001766
     13 H                     0.152538      -0.000210
  --------------------------------------------------------
  Sum of atomic charges =    -0.000000

                    Cartesian Multipole Moments
 -----------------------------------------------------------------
    Charge (ESU x 10^10)
                -0.0000
    Dipole Moment (Debye)
         X      -0.9578      Y       1.3968      Z      -1.6030
       Tot       2.3320
    Quadrupole Moments (Debye-Ang)
        XX     -41.2337     XY      -2.3673     YY     -38.9362
        XZ      -1.3201     YZ       4.3534     ZZ     -40.6036

 Total job time:  56.50s(wall), 83.15s(cpu)
        *  Thank you very much for using Q-Chem.  Have a nice day.  *
