 Q-Chem 5.0, Q-Chem, Inc., Pleasanton, CA (2017)
 Q-Chem 5.0.2 for Intel X86 EM64T Linux

User input:
--------------------------------------------------------------
$molecule
0 2
C        1.6735000166    0.3587863601   -0.4781759604
C        1.0562543561   -0.9021594529   -0.4898471847
C       -0.4209526040   -0.6978737049   -0.4124752053
C       -1.0943234380    0.7175745219    1.0190393938
C       -0.4966139934    0.8810209707   -0.3785878236
N        0.8626322681    1.4103482637   -0.4169895676
H        2.7510503826    0.5171868986   -0.4912018976
H        1.5701101273   -1.8571569663   -0.5079844591
H       -1.0045977010   -1.2411191742   -1.1673871682
H       -1.4021509037    1.4514269838    1.7577571094
H       -1.1333373380    1.3803184550   -1.1194073427
C       -1.0445534415   -0.6187088584    0.9901890645
H       -1.3170177311   -1.3996442970    1.6950710414
$end

$rem
method                b3lyp
basis                 6-31g(d)
unrestricted          true
symmetry              off
sym_ignore            true
incdft                false
incfock               0
scf_convergence       8
thresh                14
jobtype               opt
scf_guess             read
scf_algorithm         diis
max_scf_cycles        100
geom_opt_tol_gradient 600
geom_opt_tol_displacement 2400
geom_opt_tol_energy   200
geom_opt_max_cycles   100
$end

--------------------------------------------------------------

    2    -286.8754955387      2.05E-09 Convergence criterion met
 Total energy in the final basis set = -286.87549554

             Standard Nuclear Orientation (Angstroms)
    I     Atom           X                Y                Z
 ----------------------------------------------------------------
    1      C       1.6736499292     0.3589960974    -0.4779344817
    2      C       1.0558765808    -0.9014237382    -0.4881087997
    3      C      -0.4212086177    -0.6971996202    -0.4131771915
    4      C      -1.0941991015     0.7168467885     1.0186936790
    5      C      -0.4970803625     0.8811985174    -0.3792762365
    6      N       0.8624235110     1.4100407732    -0.4175720974
    7      H       2.7512603609     0.5166867413    -0.4922677878
    8      H       1.5691163399    -1.8565885151    -0.5059644597
    9      H      -1.0035524492    -1.2405120611    -1.1689128194
   10      H      -1.4005261068     1.4506854403     1.7580713883
   11      H      -1.1339596805     1.3808724903    -1.1195144171
   12      C      -1.0450041003    -0.6193309237     0.9901611004
   13      H      -1.3167963033    -1.4002719899     1.6958021230
 ----------------------------------------------------------------

   11    -286.8754982222      3.90E-09 Convergence criterion met
 Total energy in the final basis set = -286.87549822
 Final energy is   -286.875498222190
 **  OPTIMIZATION CONVERGED  **

                    Orbital Energies (a.u.)
 --------------------------------------------------------------

 Alpha MOs
 -- Occupied --
-14.328 -10.217 -10.216 -10.207 -10.202 -10.200 -10.195  -0.944
 -0.837  -0.752  -0.665  -0.618  -0.554  -0.523  -0.515  -0.481
 -0.428  -0.403  -0.386  -0.355  -0.341  -0.322  -0.270  -0.253
 -0.203

 Beta MOs
 -- Occupied --
-14.318 -10.219 -10.218 -10.203 -10.199 -10.198 -10.194  -0.932
 -0.831  -0.734  -0.665  -0.610  -0.549  -0.520  -0.512  -0.475
 -0.420  -0.396  -0.381  -0.343  -0.334  -0.301  -0.264  -0.246

          Ground-State Mulliken Net Atomic Charges

     Atom                 Charge (a.u.)    Spin (a.u.)
  --------------------------------------------------------
      1 C                     0.048237      -0.230810
      2 C                    -0.114541       0.693400
      3 C                    -0.193553      -0.054002
      4 C                    -0.075783       0.031827
      5 C                    -0.062088      -0.027661
      6 N                    -0.351515       0.517050
      7 H                     0.140563       0.007437
      8 H                     0.143337      -0.032146
      9 H                     0.148110       0.025271
     10 H                     0.137341       0.003598
     11 H                     0.151606       0.025344
     12 C                    -0.105053       0.033817
     13 H                     0.133339       0.006875
  --------------------------------------------------------
  Sum of atomic charges =     0.000000

                    Cartesian Multipole Moments
 -----------------------------------------------------------------
    Charge (ESU x 10^10)
                -0.0000
    Dipole Moment (Debye)
         X      -0.5877      Y      -2.0668      Z       0.1403
       Tot       2.1533
    Quadrupole Moments (Debye-Ang)
        XX     -38.3952     XY      -3.0229     YY     -42.1919
        XZ      -0.5444     YZ       0.9235     ZZ     -39.8177

 Total job time:  17.72s(wall), 50.37s(cpu)
        *  Thank you very much for using Q-Chem.  Have a nice day.  *
