 Q-Chem 5.0, Q-Chem, Inc., Pleasanton, CA (2017)
 Q-Chem 5.0.2 for Intel X86 EM64T Linux

User input:
--------------------------------------------------------------
$molecule
0 2
C        1.5126256955    0.5718827943   -0.1265345956
C        0.8242103590   -0.7654870928    0.0075501159
C       -0.3373483257   -0.6220407174   -0.9227065200
C       -1.1017192754    0.5040942641    0.7909218149
C       -0.6327356438    0.8668113360   -0.6144183946
N        0.7199768901    1.5058017760   -0.5041400591
H        2.5549161358    0.7612122999    0.1212627937
H        1.4016104120   -1.6860700303    0.0411042303
H       -0.8272480085   -1.3411343797   -1.5629885816
H       -1.8723948755    0.9418594009    1.4085591551
H       -1.3062060044    1.4370082431   -1.2514671036
C       -0.3823661472   -0.6887704934    0.9510658830
H       -0.5694571332   -1.4856880896    1.6658449782
$end

$rem
method                b3lyp
basis                 6-31+g(d,p)
unrestricted          true
symmetry              off
sym_ignore            true
incdft                false
incfock               0
scf_convergence       8
thresh                14
jobtype               rpath
scf_guess             core
scf_guess_mix         5
scf_algorithm         diis
max_scf_cycles        100
rpath_direction       1
rpath_tol_displacement 1000
rpath_max_cycles      50
geom_opt_max_cycles   300
geom_opt_hessian      read
$end

--------------------------------------------------------------

   24    -286.8438085220      5.89E-09 Convergence criterion met
 Total energy in the final basis set = -286.84380852
   23    -286.8456987407      7.02E-09 Convergence criterion met
 Total energy in the final basis set = -286.84569874
   23    -286.8456653658      6.56E-09 Convergence criterion met
 Total energy in the final basis set = -286.84566537
   23    -286.8457028508      6.84E-09 Convergence criterion met
 Total energy in the final basis set = -286.84570285
   23    -286.8496782191      9.39E-09 Convergence criterion met
 Total energy in the final basis set = -286.84967822
   23    -286.8495554428      8.95E-09 Convergence criterion met
 Total energy in the final basis set = -286.84955544
   23    -286.8496887658      9.99E-09 Convergence criterion met
 Total energy in the final basis set = -286.84968877
   23    -286.8534045555      7.43E-09 Convergence criterion met
 Total energy in the final basis set = -286.87001251
   21    -286.8734998079      6.11E-09 Convergence criterion met
 Total energy in the final basis set = -286.87349981
   21    -286.8734995247      5.68E-09 Convergence criterion met
 Total energy in the final basis set = -286.87349952
   21    -286.8735007319      5.97E-09 Convergence criterion met
 Total energy in the final basis set = -286.87350073
   22    -286.8730141927      7.93E-09 Convergence criterion met
 Total energy in the final basis set = -286.87301419
   21    -286.8735110950      5.49E-09 Convergence criterion met
 Total energy in the final basis set = -286.87351110
   21    -286.8734864661      6.06E-09 Convergence criterion met
 Total energy in the final basis set = -286.87348647
   21    -286.8735156293      5.84E-09 Convergence criterion met
 Total energy in the final basis set = -286.87351563

                    Orbital Energies (a.u.)
 --------------------------------------------------------------

 Alpha MOs
 -- Occupied --
-14.337 -10.235 -10.231 -10.221 -10.216 -10.213 -10.209  -0.965
 -0.833  -0.737  -0.715  -0.589  -0.583  -0.539  -0.520  -0.481
 -0.429  -0.420  -0.391  -0.383  -0.358  -0.305  -0.283  -0.271
 -0.206

 Beta MOs
 -- Occupied --
-14.336 -10.235 -10.231 -10.221 -10.212 -10.208 -10.202  -0.961
 -0.827  -0.735  -0.700  -0.587  -0.571  -0.536  -0.517  -0.472
 -0.425  -0.416  -0.389  -0.380  -0.352  -0.298  -0.273  -0.268

          Ground-State Mulliken Net Atomic Charges

     Atom                 Charge (a.u.)    Spin (a.u.)
  --------------------------------------------------------
      1 C                    -0.092357      -0.030761
      2 C                     0.008070      -0.061047
      3 C                    -0.270272       1.034162
      4 C                    -0.147074       0.048209
      5 C                     0.023705      -0.089709
      6 N                    -0.202554       0.024834
      7 H                     0.137358      -0.000121
      8 H                     0.124666       0.003486
      9 H                     0.138893      -0.026031
     10 H                     0.138865       0.000598
     11 H                     0.129372       0.003567
     12 C                    -0.127275       0.092622
     13 H                     0.138602       0.000192
  --------------------------------------------------------
  Sum of atomic charges =    -0.000000

                    Cartesian Multipole Moments
 -----------------------------------------------------------------
    Charge (ESU x 10^10)
                -0.0000
    Dipole Moment (Debye)
         X      -0.6142      Y      -2.2681      Z       1.0996
       Tot       2.5943
    Quadrupole Moments (Debye-Ang)
        XX     -37.7779     XY      -3.8481     YY     -45.4652
        XZ       1.5653     YZ       0.2381     ZZ     -42.2372

             Standard Nuclear Orientation (Angstroms)
    I     Atom           X                Y                Z
 ----------------------------------------------------------------
    1      C       1.5126256955     0.5718827943    -0.1265345956
    2      C       0.8242103590    -0.7654870928     0.0075501159
    3      C      -0.3373483257    -0.6220407174    -0.9227065200
    4      C      -1.1017192754     0.5040942641     0.7909218149
    5      C      -0.6327356438     0.8668113360    -0.6144183946
    6      N       0.7199768901     1.5058017760    -0.5041400591
    7      H       2.5549161358     0.7612122999     0.1212627937
    8      H       1.4016104120    -1.6860700303     0.0411042303
    9      H      -0.8272480085    -1.3411343797    -1.5629885816
   10      H      -1.8723948755     0.9418594009     1.4085591551
   11      H      -1.3062060044     1.4370082431    -1.2514671036
   12      C      -0.3823661472    -0.6887704934     0.9510658830
   13      H      -0.5694571332    -1.4856880896     1.6658449782
 ----------------------------------------------------------------

 Total job time:  8892.04s(wall), 34692.56s(cpu)
        *  Thank you very much for using Q-Chem.  Have a nice day.  *
