 Q-Chem 5.0, Q-Chem, Inc., Pleasanton, CA (2017)
 Q-Chem 5.0.2 for Intel X86 EM64T Linux

User input:
--------------------------------------------------------------
$molecule
0 2
C        1.4883011088    0.5334039584   -0.0862221357
C        0.7321102198   -0.8091779327   -0.0266360973
C       -0.2106094674   -0.5081042567   -1.1963852389
C       -1.1344824217    0.3513739740    0.7155536687
C       -0.6243557815    0.8518053175   -0.6461538338
N        0.7312581334    1.5028126048   -0.4317572911
H        2.5402418846    0.6702635489    0.1546975354
H        1.3280535015   -1.7211524973   -0.0226906760
H       -0.9110403504   -1.2404155909   -1.5921780032
H       -1.9757290738    0.7676426317    1.2571562581
H       -1.2931065298    1.4918874087   -1.2179329529
C       -0.3189620569   -0.6500968334    1.0918336777
H       -0.3516791671   -1.2402423334    2.0007150884
$end

$rem
method                b3lyp
basis                 6-31+g(d,p)
unrestricted          true
symmetry              off
sym_ignore            true
incdft                false
incfock               0
scf_convergence       8
thresh                14
jobtype               sp
scf_guess             core
scf_guess_mix         5
scf_algorithm         diis
max_scf_cycles        100
$end

--------------------------------------------------------------

             Standard Nuclear Orientation (Angstroms)
    I     Atom           X                Y                Z
 ----------------------------------------------------------------
    1      C       1.4883011088     0.5334039584    -0.0862221357
    2      C       0.7321102198    -0.8091779327    -0.0266360973
    3      C      -0.2106094674    -0.5081042567    -1.1963852389
    4      C      -1.1344824217     0.3513739740     0.7155536687
    5      C      -0.6243557815     0.8518053175    -0.6461538338
    6      N       0.7312581334     1.5028126048    -0.4317572911
    7      H       2.5402418846     0.6702635489     0.1546975354
    8      H       1.3280535015    -1.7211524973    -0.0226906760
    9      H      -0.9110403504    -1.2404155909    -1.5921780032
   10      H      -1.9757290738     0.7676426317     1.2571562581
   11      H      -1.2931065298     1.4918874087    -1.2179329529
   12      C      -0.3189620569    -0.6500968334     1.0918336777
   13      H      -0.3516791671    -1.2402423334     2.0007150884
 ----------------------------------------------------------------

   21    -286.8735156293      5.84E-09 Convergence criterion met
 Total energy in the final basis set = -286.87351563

                    Orbital Energies (a.u.)
 --------------------------------------------------------------

 Alpha MOs
 -- Occupied --
-14.337 -10.235 -10.231 -10.221 -10.216 -10.213 -10.209  -0.965
 -0.833  -0.737  -0.715  -0.589  -0.583  -0.539  -0.520  -0.481
 -0.429  -0.420  -0.391  -0.383  -0.358  -0.305  -0.283  -0.271
 -0.206

 Beta MOs
 -- Occupied --
-14.336 -10.235 -10.231 -10.221 -10.212 -10.208 -10.202  -0.961
 -0.827  -0.735  -0.700  -0.587  -0.571  -0.536  -0.517  -0.472
 -0.425  -0.416  -0.389  -0.380  -0.352  -0.298  -0.273  -0.268

          Ground-State Mulliken Net Atomic Charges

     Atom                 Charge (a.u.)    Spin (a.u.)
  --------------------------------------------------------
      1 C                    -0.092357      -0.030761
      2 C                     0.008070      -0.061047
      3 C                    -0.270272       1.034162
      4 C                    -0.147074       0.048209
      5 C                     0.023705      -0.089709
      6 N                    -0.202554       0.024834
      7 H                     0.137358      -0.000121
      8 H                     0.124666       0.003486
      9 H                     0.138893      -0.026031
     10 H                     0.138865       0.000598
     11 H                     0.129372       0.003567
     12 C                    -0.127275       0.092622
     13 H                     0.138602       0.000192
  --------------------------------------------------------
  Sum of atomic charges =     0.000000

                    Cartesian Multipole Moments
 -----------------------------------------------------------------
    Charge (ESU x 10^10)
                 0.0000
    Dipole Moment (Debye)
         X      -0.6142      Y      -2.2681      Z       1.0996
       Tot       2.5943
    Quadrupole Moments (Debye-Ang)
        XX     -37.7794     XY      -3.8510     YY     -45.4654
        XZ       1.5669     YZ       0.2389     ZZ     -42.2379

 Total job time:  27.91s(wall), 107.01s(cpu)
        *  Thank you very much for using Q-Chem.  Have a nice day.  *
