 Q-Chem 5.0, Q-Chem, Inc., Pleasanton, CA (2017)
 Q-Chem 5.0.2 for Intel X86 EM64T Linux

User input:
--------------------------------------------------------------
$molecule
0 2
C        1.5126256955    0.5718827943   -0.1265345956
C        0.8242103590   -0.7654870928    0.0075501159
C       -0.3373483257   -0.6220407174   -0.9227065200
C       -1.1017192754    0.5040942641    0.7909218149
C       -0.6327356438    0.8668113360   -0.6144183946
N        0.7199768901    1.5058017760   -0.5041400591
H        2.5549161358    0.7612122999    0.1212627937
H        1.4016104120   -1.6860700303    0.0411042303
H       -0.8272480085   -1.3411343797   -1.5629885816
H       -1.8723948755    0.9418594009    1.4085591551
H       -1.3062060044    1.4370082431   -1.2514671036
C       -0.3823661472   -0.6887704934    0.9510658830
H       -0.5694571332   -1.4856880896    1.6658449782
$end

$rem
method                b3lyp
basis                 6-31+g(d,p)
unrestricted          true
symmetry              off
sym_ignore            true
incdft                false
incfock               0
scf_convergence       6
thresh                14
jobtype               sp
scf_guess             read
scf_algorithm         diis
max_scf_cycles        100
stability_analysis    true
max_cis_cycles        100
cis_n_roots           4
$end

--------------------------------------------------------------

             Standard Nuclear Orientation (Angstroms)
    I     Atom           X                Y                Z
 ----------------------------------------------------------------
    1      C       1.5126256955     0.5718827943    -0.1265345956
    2      C       0.8242103590    -0.7654870928     0.0075501159
    3      C      -0.3373483257    -0.6220407174    -0.9227065200
    4      C      -1.1017192754     0.5040942641     0.7909218149
    5      C      -0.6327356438     0.8668113360    -0.6144183946
    6      N       0.7199768901     1.5058017760    -0.5041400591
    7      H       2.5549161358     0.7612122999     0.1212627937
    8      H       1.4016104120    -1.6860700303     0.0411042303
    9      H      -0.8272480085    -1.3411343797    -1.5629885816
   10      H      -1.8723948755     0.9418594009     1.4085591551
   11      H      -1.3062060044     1.4370082431    -1.2514671036
   12      C      -0.3823661472    -0.6887704934     0.9510658830
   13      H      -0.5694571332    -1.4856880896     1.6658449782
 ----------------------------------------------------------------

    2    -286.8438085221      4.42E-09 Convergence criterion met
 Total energy in the final basis set = -286.84380852

         TDDFT/TDA Excitation Energies
 ---------------------------------------------------

 Excited state   1: excitation energy (eV) =    2.2569
 Total energy for state  1:                  -286.76087038 au
    <S**2>     :  0.7815
    Trans. Mom.:  0.0939 X   0.2975 Y   0.2474 Z
    Strength   :     0.0087644576
    S(  1) --> V(  1) amplitude =  0.9558 alpha
    S(  1) --> V(  2) amplitude =  0.2075 alpha

 Excited state   2: excitation energy (eV) =    2.6844
 Total energy for state  2:                  -286.74516045 au
    <S**2>     :  0.7827
    Trans. Mom.: -0.3410 X  -0.0088 Y   0.2953 Z
    Strength   :     0.0133898544
    S(  1) --> V(  1) amplitude = -0.2384 alpha
    S(  1) --> V(  2) amplitude =  0.9399 alpha

 Excited state   3: excitation energy (eV) =    3.2385
 Total energy for state  3:                  -286.72479509 au
    <S**2>     :  0.7878
    Trans. Mom.: -0.0426 X   0.0054 Y  -0.2645 Z
    Strength   :     0.0056955181
    S(  1) --> V(  3) amplitude =  0.9831 alpha

 Excited state   4: excitation energy (eV) =    3.8660
 Total energy for state  4:                  -286.70173641 au
    <S**2>     :  0.7875
    Trans. Mom.: -0.0107 X  -0.1015 Y  -0.0624 Z
    Strength   :     0.0013546790
    S(  1) --> V(  4) amplitude =  0.9560 alpha
    S(  1) --> V(  5) amplitude = -0.2400 alpha

 ---------------------------------------------------

                    Orbital Energies (a.u.)
 --------------------------------------------------------------

 Alpha MOs
 -- Occupied --
-14.334 -10.234 -10.231 -10.229 -10.225 -10.222 -10.199  -0.969
 -0.850  -0.750  -0.690  -0.601  -0.587  -0.546  -0.524  -0.474
 -0.436  -0.418  -0.409  -0.387  -0.351  -0.307  -0.287  -0.266
 -0.152

 Beta MOs
 -- Occupied --
-14.334 -10.236 -10.232 -10.228 -10.225 -10.214 -10.189  -0.965
 -0.844  -0.743  -0.680  -0.597  -0.577  -0.544  -0.516  -0.469
 -0.432  -0.413  -0.407  -0.385  -0.346  -0.291  -0.277  -0.262

          Ground-State Mulliken Net Atomic Charges

     Atom                 Charge (a.u.)    Spin (a.u.)
  --------------------------------------------------------
      1 C                    -0.063613       0.042045
      2 C                    -0.017033      -0.033111
      3 C                    -0.277472       0.641404
      4 C                    -0.132408       0.739541
      5 C                     0.013397      -0.124135
      6 N                    -0.206555      -0.002914
      7 H                     0.134929       0.001367
      8 H                     0.131544       0.003579
      9 H                     0.147188      -0.027942
     10 H                     0.138889      -0.030605
     11 H                     0.130435       0.008203
     12 C                    -0.139961      -0.229993
     13 H                     0.140660       0.012561
  --------------------------------------------------------
  Sum of atomic charges =    -0.000000

                    Cartesian Multipole Moments
 -----------------------------------------------------------------
    Charge (ESU x 10^10)
                -0.0000
    Dipole Moment (Debye)
         X      -0.4196      Y      -2.8618      Z       0.5612
       Tot       2.9463
    Quadrupole Moments (Debye-Ang)
        XX     -38.6308     XY      -3.3753     YY     -45.0473
        XZ       1.4884     YZ       0.3770     ZZ     -41.7087

 Total job time:  198.78s(wall), 196.07s(cpu)
        *  Thank you very much for using Q-Chem.  Have a nice day.  *
