 Q-Chem 5.0, Q-Chem, Inc., Pleasanton, CA (2017)
 Q-Chem 5.0.2 for Intel X86 EM64T Linux

User input:
--------------------------------------------------------------
$molecule
0 2
C        1.4849398096    0.6123058407   -0.1105721402
C        0.8881624123   -0.7416194639    0.0133387867
C       -0.3891806233   -0.7036322885   -0.7477046046
C       -1.1564270568    0.5371416062    0.7870898174
C       -0.6603904296    0.8480602863   -0.6202063315
N        0.6610939129    1.5173791322   -0.5034005078
H        2.5165303500    0.8505074702    0.1420375508
H        1.4789169888   -1.6484621524    0.0946325372
H       -0.7306026875   -1.4001950407   -1.5065561110
H       -1.5111754722    1.1848369585    1.5820610578
H       -1.3219624020    1.3611207714   -1.3182672804
C       -0.5352951545   -0.7817988361    0.7734237246
H       -0.7246096476   -1.6356442840    1.4141235010
$end

$rem
method                b3lyp
basis                 6-31+g(d,p)
unrestricted          true
symmetry              off
sym_ignore            true
incdft                false
incfock               0
scf_convergence       8
thresh                14
jobtype               sp
scf_guess             read
scf_algorithm         diis
max_scf_cycles        100
scf_final_print       1
$end

--------------------------------------------------------------

             Standard Nuclear Orientation (Angstroms)
    I     Atom           X                Y                Z
 ----------------------------------------------------------------
    1      C       1.4849398096     0.6123058407    -0.1105721402
    2      C       0.8881624123    -0.7416194639     0.0133387867
    3      C      -0.3891806233    -0.7036322885    -0.7477046046
    4      C      -1.1564270568     0.5371416062     0.7870898174
    5      C      -0.6603904296     0.8480602863    -0.6202063315
    6      N       0.6610939129     1.5173791322    -0.5034005078
    7      H       2.5165303500     0.8505074702     0.1420375508
    8      H       1.4789169888    -1.6484621524     0.0946325372
    9      H      -0.7306026875    -1.4001950407    -1.5065561110
   10      H      -1.5111754722     1.1848369585     1.5820610578
   11      H      -1.3219624020     1.3611207714    -1.3182672804
   12      C      -0.5352951545    -0.7817988361     0.7734237246
   13      H      -0.7246096476    -1.6356442840     1.4141235010
 ----------------------------------------------------------------

    2    -286.8602217860      8.56E-10 Convergence criterion met
 Total energy in the final basis set = -286.86022179

                    Orbital Energies (a.u.)
 --------------------------------------------------------------

 Alpha MOs
 -- Occupied --
-14.331 -10.230 -10.230 -10.224 -10.222 -10.219 -10.211  -0.974
 -0.866  -0.757  -0.667  -0.618  -0.581  -0.545  -0.528  -0.473
 -0.441  -0.421  -0.398  -0.371  -0.346  -0.315  -0.274  -0.268
 -0.193

 Beta MOs
 -- Occupied --
-14.331 -10.231 -10.230 -10.225 -10.220 -10.217 -10.198  -0.970
 -0.862  -0.747  -0.657  -0.612  -0.577  -0.542  -0.517  -0.470
 -0.436  -0.416  -0.394  -0.368  -0.334  -0.306  -0.269  -0.266

          Ground-State Mulliken Net Atomic Charges

     Atom                 Charge (a.u.)    Spin (a.u.)
  --------------------------------------------------------
      1 C                    -0.091184       0.042401
      2 C                    -0.098423       0.110402
      3 C                    -0.125204       0.066038
      4 C                    -0.074493       1.021055
      5 C                    -0.075888      -0.124259
      6 N                    -0.210173       0.030015
      7 H                     0.132404       0.004599
      8 H                     0.137934       0.001312
      9 H                     0.133108      -0.000351
     10 H                     0.130597      -0.024384
     11 H                     0.135286       0.018707
     12 C                    -0.134401      -0.150156
     13 H                     0.140438       0.004620
  --------------------------------------------------------
  Sum of atomic charges =     0.000000

                    Cartesian Multipole Moments
 -----------------------------------------------------------------
    Charge (ESU x 10^10)
                 0.0000
    Dipole Moment (Debye)
         X      -0.1619      Y      -2.7009      Z       0.4424
       Tot       2.7417
    Quadrupole Moments (Debye-Ang)
        XX     -39.6608     XY      -2.7815     YY     -44.5629
        XZ       1.4472     YZ       1.3566     ZZ     -40.8490

 Total job time:  3.21s(wall), 11.53s(cpu)
        *  Thank you very much for using Q-Chem.  Have a nice day.  *
