 Q-Chem 5.0, Q-Chem, Inc., Pleasanton, CA (2017)
 Q-Chem 5.0.2 for Intel X86 EM64T Linux

User input:
--------------------------------------------------------------
$molecule
0 2
C        1.5442260122    0.5858170099   -0.1648227007
C        0.8933928188   -0.7433281533    0.0274524181
C       -0.4116294351   -0.6568399607   -0.6947308194
C       -1.0190626743    0.6293213101    0.8813309350
C       -0.6034654431    0.9023794952   -0.5700925198
N        0.7480965927    1.5150152936   -0.5418434138
H        2.5985034105    0.7806894678    0.0288947196
H        1.4558011547   -1.6713749082    0.0632118031
H       -0.8124854917   -1.3478788806   -1.4307367237
H       -1.9839980831    0.8769962878    1.3090357089
H       -1.2898439338    1.4327961462   -1.2297459986
C       -0.4462241013   -0.7297048709    0.8396281663
H       -0.6733108267   -1.5738882364    1.4824184246
****
C        1.6494487275    0.6054411519   -0.2615320750
C        1.2317930440   -0.7326055633   -0.3357574464
C       -0.2565087456   -0.7499215861   -0.4551801250
C       -1.3108294902    0.5414139655    0.8580944143
C       -0.5684004711    0.7996665876   -0.4533208391
N        0.6911363387    1.5243658134   -0.3218646161
H        2.6842795910    0.9213727104   -0.1365103474
H        1.8785702535   -1.6009209963   -0.2732544161
H       -0.6488940997   -1.3698362146   -1.2719798781
H       -1.8152971487    1.2179822822    1.5413063884
H       -1.1704008222    1.2038596386   -1.2764390577
C       -1.0613004182   -0.7724592818    0.8551761103
H       -1.3035967591   -1.5883585073    1.5312618878
$end

$rem
method                b3lyp
basis                 6-31g(d)
unrestricted          true
symmetry              off
sym_ignore            true
incdft                false
incfock               0
scf_convergence       8
thresh                14
jobtype               fsm
scf_guess             core
scf_guess_mix         5
scf_algorithm         diis
max_scf_cycles        100
fsm_nnode             21
fsm_ngrad             6
fsm_mode              2
fsm_opt_mode          2
$end

--------------------------------------------------------------

   20    -286.8365051346      9.83E-09 Convergence criterion met
 Total energy in the final basis set = -286.83650513
   22    -286.8754384510      8.33E-09 Convergence criterion met
 Total energy in the final basis set = -286.87543845
   22    -286.8358111947      7.83E-09 Convergence criterion met
 Total energy in the final basis set = -286.83581119
   21    -286.8348066777      5.47E-09 Convergence criterion met
 Total energy in the final basis set = -286.83480668
   21    -286.8304567696      9.28E-09 Convergence criterion met
 Total energy in the final basis set = -286.83045677
   22    -286.8344871901      6.23E-09 Convergence criterion met
 Total energy in the final basis set = -286.83448719
   22    -286.8749351403      4.20E-09 Convergence criterion met
 Total energy in the final basis set = -286.87493514
   21    -286.8721355315      7.18E-09 Convergence criterion met
 Total energy in the final basis set = -286.83258698
   22    -286.8328204341      5.95E-09 Convergence criterion met
 Total energy in the final basis set = -286.83282043
   22    -286.8325901759      8.10E-09 Convergence criterion met
 Total energy in the final basis set = -286.83259018
   22    -286.8328174529      6.02E-09 Convergence criterion met
 Total energy in the final basis set = -286.83281745
   22    -286.8325953511      8.16E-09 Convergence criterion met
 Total energy in the final basis set = -286.83259535
   22    -286.8328124732      5.95E-09 Convergence criterion met
 Total energy in the final basis set = -286.83281247
   22    -286.8326010604      8.25E-09 Convergence criterion met
 Total energy in the final basis set = -286.83260106
   22    -286.8328069664      5.96E-09 Convergence criterion met
 Total energy in the final basis set = -286.83280697

                    Orbital Energies (a.u.)
 --------------------------------------------------------------

 Alpha MOs
 -- Occupied --
-14.314 -10.219 -10.217 -10.217 -10.213 -10.208 -10.197  -0.957
 -0.852  -0.745  -0.658  -0.610  -0.567  -0.535  -0.520  -0.462
 -0.434  -0.413  -0.388  -0.360  -0.329  -0.315  -0.263  -0.252
 -0.169

 Beta MOs
 -- Occupied --
-14.313 -10.220 -10.219 -10.216 -10.211 -10.206 -10.185  -0.952
 -0.847  -0.734  -0.650  -0.602  -0.563  -0.533  -0.510  -0.459
 -0.429  -0.407  -0.383  -0.356  -0.314  -0.308  -0.255  -0.249

          Ground-State Mulliken Net Atomic Charges

     Atom                 Charge (a.u.)    Spin (a.u.)
  --------------------------------------------------------
      1 C                     0.094460       0.011390
      2 C                    -0.195761       0.149041
      3 C                    -0.108836       0.080476
      4 C                    -0.063902       0.902086
      5 C                    -0.087186      -0.060858
      6 N                    -0.349724       0.042229
      7 H                     0.144099       0.005065
      8 H                     0.145447       0.000017
      9 H                     0.147662       0.004668
     10 H                     0.145366      -0.040968
     11 H                     0.142068       0.015044
     12 C                    -0.162752      -0.110917
     13 H                     0.149061       0.002726
  --------------------------------------------------------
  Sum of atomic charges =     0.000000

                    Cartesian Multipole Moments
 -----------------------------------------------------------------
    Charge (ESU x 10^10)
                -0.0000
    Dipole Moment (Debye)
         X      -0.6218      Y      -2.4866      Z       0.2251
       Tot       2.5730
    Quadrupole Moments (Debye-Ang)
        XX     -37.0251     XY      -2.5882     YY     -43.2305
        XZ       0.3135     YZ       1.0028     ZZ     -40.3275

             Standard Nuclear Orientation (Angstroms)
    I     Atom           X                Y                Z
 ----------------------------------------------------------------
    1      C       1.5156601093     0.6065937158    -0.1393472137
    2      C       0.9245491449    -0.7504467226    -0.0114805108
    3      C      -0.3780618329    -0.6938810576    -0.7075987837
    4      C      -1.0905906018     0.5719188792     0.8279566693
    5      C      -0.6293880886     0.8652559333    -0.5941076961
    6      N       0.6980911547     1.5150880079    -0.5285591757
    7      H       2.5537852351     0.8333478985     0.0894564656
    8      H       1.5226414238    -1.6534376985     0.0574919511
    9      H      -0.7575517687    -1.3857116487    -1.4573028469
   10      H      -1.7553204016     1.0959137626     1.5012025046
   11      H      -1.3038438456     1.3736639952    -1.2833722179
   12      C      -0.5529484317    -0.7684115150     0.8004658918
   13      H      -0.7631580182    -1.6104142389     1.4492486791
 ----------------------------------------------------------------

 Total job time:  1580.30s(wall), 5999.08s(cpu)
        *  Thank you very much for using Q-Chem.  Have a nice day.  *
