 Q-Chem 5.0, Q-Chem, Inc., Pleasanton, CA (2017)
 Q-Chem 5.0.2 for Intel X86 EM64T Linux

User input:
--------------------------------------------------------------
$molecule
0 2
C        1.6498617841    0.6053413523   -0.2614928007
C        1.2319943246   -0.7326085635   -0.3358821724
C       -0.2563921013   -0.7498130883   -0.4545399288
C       -1.3114987506    0.5414231106    0.8580309863
C       -0.5681885622    0.7998199937   -0.4528860814
N        0.6915153921    1.5243072685   -0.3212811176
H        2.6848606211    0.9212095018   -0.1375320144
H        1.8788730690   -1.6008780315   -0.2741638609
H       -0.6491931915   -1.3694793915   -1.2713614457
H       -1.8169574232    1.2177279921    1.5407014661
H       -1.1698818898    1.2036817918   -1.2764587002
C       -1.0612319078   -0.7723013138    0.8555262725
H       -1.3037613645   -1.5884306221    1.5313393971
$end

$rem
method                b3lyp
basis                 6-31g(d)
unrestricted          true
symmetry              off
sym_ignore            true
incdft                false
incfock               0
scf_convergence       8
thresh                14
jobtype               opt
scf_guess             core
scf_guess_mix         5
scf_algorithm         diis
max_scf_cycles        100
geom_opt_max_cycles   300
$end

--------------------------------------------------------------

   22    -286.8754381619      8.32E-09 Convergence criterion met
 Total energy in the final basis set = -286.87543816

             Standard Nuclear Orientation (Angstroms)
    I     Atom           X                Y                Z
 ----------------------------------------------------------------
    1      C       1.6494487275     0.6054411519    -0.2615320750
    2      C       1.2317930440    -0.7326055633    -0.3357574464
    3      C      -0.2565087456    -0.7499215861    -0.4551801250
    4      C      -1.3108294902     0.5414139655     0.8580944143
    5      C      -0.5684004711     0.7996665876    -0.4533208391
    6      N       0.6911363387     1.5243658134    -0.3218646161
    7      H       2.6842795910     0.9213727104    -0.1365103474
    8      H       1.8785702535    -1.6009209963    -0.2732544161
    9      H      -0.6488940997    -1.3698362146    -1.2719798781
   10      H      -1.8152971487     1.2179822822     1.5413063884
   11      H      -1.1704008222     1.2038596386    -1.2764390577
   12      C      -1.0613004182    -0.7724592818     0.8551761103
   13      H      -1.3035967591    -1.5883585073     1.5312618878
 ----------------------------------------------------------------

   16    -286.8754384525      5.58E-09 Convergence criterion met
 Total energy in the final basis set = -286.87543845
 Final energy is   -286.875438452488
 **  OPTIMIZATION CONVERGED  **

                    Orbital Energies (a.u.)
 --------------------------------------------------------------

 Alpha MOs
 -- Occupied --
-14.328 -10.217 -10.216 -10.207 -10.203 -10.200 -10.195  -0.944
 -0.837  -0.752  -0.665  -0.618  -0.554  -0.523  -0.515  -0.481
 -0.428  -0.403  -0.386  -0.355  -0.341  -0.322  -0.270  -0.253
 -0.203

 Beta MOs
 -- Occupied --
-14.318 -10.219 -10.218 -10.203 -10.199 -10.198 -10.194  -0.932
 -0.831  -0.734  -0.665  -0.610  -0.549  -0.520  -0.512  -0.475
 -0.420  -0.396  -0.381  -0.343  -0.334  -0.301  -0.264  -0.246

          Ground-State Mulliken Net Atomic Charges

     Atom                 Charge (a.u.)    Spin (a.u.)
  --------------------------------------------------------
      1 C                     0.048294      -0.230828
      2 C                    -0.114850       0.693430
      3 C                    -0.193440      -0.054086
      4 C                    -0.075768       0.031813
      5 C                    -0.062283      -0.027612
      6 N                    -0.351346       0.516940
      7 H                     0.140558       0.007441
      8 H                     0.143374      -0.032153
      9 H                     0.148093       0.025232
     10 H                     0.137382       0.003598
     11 H                     0.151565       0.025350
     12 C                    -0.104881       0.033991
     13 H                     0.133303       0.006883
  --------------------------------------------------------
  Sum of atomic charges =     0.000000

                    Cartesian Multipole Moments
 -----------------------------------------------------------------
    Charge (ESU x 10^10)
                 0.0000
    Dipole Moment (Debye)
         X      -0.2888      Y      -2.1309      Z       0.0933
       Tot       2.1524
    Quadrupole Moments (Debye-Ang)
        XX     -37.4568     XY      -2.4185     YY     -43.0011
        XZ      -0.3741     YZ       0.5058     ZZ     -39.9467

 Total job time:  29.18s(wall), 108.19s(cpu)
        *  Thank you very much for using Q-Chem.  Have a nice day.  *
