 Q-Chem 5.0, Q-Chem, Inc., Pleasanton, CA (2017)
 Q-Chem 5.0.2 for Intel X86 EM64T Linux

User input:
--------------------------------------------------------------
$molecule
0 2
C        1.5299284714    0.5921932666   -0.1546403636
C        0.8938036152   -0.7439933803    0.0246917941
C       -0.4027000747   -0.6733633792   -0.7095373695
C       -1.0425876342    0.6084717781    0.8558604760
C       -0.6187523129    0.8852342133   -0.5850591414
N        0.7276677004    1.5146299450   -0.5380684068
H        2.5783974638    0.7999288264    0.0566902427
H        1.4648546506   -1.6661954627    0.0737171237
H       -0.7860695375   -1.3672088890   -1.4520124631
H       -1.9018337010    0.9741392775    1.4013047100
H       -1.3005949966    1.4075603001   -1.2564752454
C       -0.4695131421   -0.7429648525    0.8222042915
H       -0.6887364236   -1.5889523321    1.4653780685
$end

$rem
method                b3lyp
basis                 6-31g(d)
unrestricted          true
symmetry              off
sym_ignore            true
incdft                false
incfock               0
scf_convergence       6
thresh                14
jobtype               sp
scf_guess             read
scf_algorithm         diis
max_scf_cycles        100
stability_analysis    true
max_cis_cycles        100
cis_n_roots           4
$end

--------------------------------------------------------------

             Standard Nuclear Orientation (Angstroms)
    I     Atom           X                Y                Z
 ----------------------------------------------------------------
    1      C       1.5299284714     0.5921932666    -0.1546403636
    2      C       0.8938036152    -0.7439933803     0.0246917941
    3      C      -0.4027000747    -0.6733633792    -0.7095373695
    4      C      -1.0425876342     0.6084717781     0.8558604760
    5      C      -0.6187523129     0.8852342133    -0.5850591414
    6      N       0.7276677004     1.5146299450    -0.5380684068
    7      H       2.5783974638     0.7999288264     0.0566902427
    8      H       1.4648546506    -1.6661954627     0.0737171237
    9      H      -0.7860695375    -1.3672088890    -1.4520124631
   10      H      -1.9018337010     0.9741392775     1.4013047100
   11      H      -1.3005949966     1.4075603001    -1.2564752454
   12      C      -0.4695131421    -0.7429648525     0.8222042915
   13      H      -0.6887364236    -1.5889523321     1.4653780685
 ----------------------------------------------------------------

    2    -286.8364398341      1.02E-09 Convergence criterion met
 Total energy in the final basis set = -286.83643983

         TDDFT/TDA Excitation Energies
 ---------------------------------------------------

 Excited state   1: excitation energy (eV) =    3.3979
 Total energy for state  1:                  -286.71156769 au
    <S**2>     :  0.8304
    Trans. Mom.: -0.2291 X  -0.0396 Y   0.1775 Z
    Strength   :     0.0071242255
    S(  1) --> V(  1) amplitude =  0.9872 alpha

 Excited state   2: excitation energy (eV) =    4.2886
 Total energy for state  2:                  -286.67883516 au
    <S**2>     :  2.2129
    Trans. Mom.:  0.0123 X   0.0079 Y  -0.0359 Z
    Strength   :     0.0001581826
    D( 23) --> V(  1) amplitude =  0.5295 alpha
    D( 24) --> V(  1) amplitude =  0.1763 alpha
    D( 23) --> S(  1) amplitude =  0.6330 beta
    D( 23) --> V(  1) amplitude =  0.4011 beta
    D( 24) --> S(  1) amplitude =  0.2171 beta
    D( 24) --> V(  1) amplitude =  0.1582 beta

 Excited state   3: excitation energy (eV) =    4.4057
 Total energy for state  3:                  -286.67453494 au
    <S**2>     :  1.7009
    Trans. Mom.:  0.1239 X   0.0692 Y   0.0295 Z
    Strength   :     0.0022684131
    D( 24) --> V(  1) amplitude =  0.3527 alpha
    D( 23) --> S(  1) amplitude = -0.2890 beta
    D( 24) --> S(  1) amplitude =  0.7900 beta
    D( 24) --> V(  1) amplitude =  0.3492 beta

 Excited state   4: excitation energy (eV) =    4.8839
 Total energy for state  4:                  -286.65695814 au
    <S**2>     :  1.7614
    Trans. Mom.: -0.0427 X  -0.0442 Y  -0.1186 Z
    Strength   :     0.0021347969
    D( 23) --> V(  1) amplitude = -0.2612 alpha
    D( 24) --> V(  1) amplitude =  0.6301 alpha
    D( 23) --> S(  1) amplitude =  0.2771 beta
    D( 23) --> V(  1) amplitude = -0.2539 beta
    D( 24) --> S(  1) amplitude = -0.4433 beta
    D( 24) --> V(  1) amplitude =  0.4052 beta

 ---------------------------------------------------

                    Orbital Energies (a.u.)
 --------------------------------------------------------------

 Alpha MOs
 -- Occupied --
-14.316 -10.220 -10.219 -10.215 -10.211 -10.210 -10.194  -0.963
 -0.857  -0.746  -0.656  -0.607  -0.573  -0.539  -0.515  -0.462
 -0.430  -0.412  -0.387  -0.365  -0.329  -0.313  -0.264  -0.255
 -0.170

 Beta MOs
 -- Occupied --
-14.316 -10.221 -10.219 -10.216 -10.209 -10.208 -10.181  -0.959
 -0.852  -0.735  -0.646  -0.602  -0.569  -0.537  -0.504  -0.460
 -0.426  -0.406  -0.383  -0.361  -0.318  -0.301  -0.261  -0.253

          Ground-State Mulliken Net Atomic Charges

     Atom                 Charge (a.u.)    Spin (a.u.)
  --------------------------------------------------------
      1 C                     0.095478       0.016435
      2 C                    -0.192622       0.054662
      3 C                    -0.104647       0.105079
      4 C                    -0.068366       0.957701
      5 C                    -0.101310      -0.054180
      6 N                    -0.340122       0.014086
      7 H                     0.142909       0.004195
      8 H                     0.147841       0.001682
      9 H                     0.149130       0.005859
     10 H                     0.142541      -0.045079
     11 H                     0.140791       0.008713
     12 C                    -0.160036      -0.070899
     13 H                     0.148411       0.001746
  --------------------------------------------------------
  Sum of atomic charges =    -0.000000

                    Cartesian Multipole Moments
 -----------------------------------------------------------------
    Charge (ESU x 10^10)
                -0.0000
    Dipole Moment (Debye)
         X      -0.6207      Y      -2.6446      Z       0.2479
       Tot       2.7278
    Quadrupole Moments (Debye-Ang)
        XX     -37.0403     XY      -2.6710     YY     -43.3593
        XZ       0.8493     YZ       0.7422     ZZ     -40.5569

 Total job time:  80.89s(wall), 80.08s(cpu)
        *  Thank you very much for using Q-Chem.  Have a nice day.  *
