 Q-Chem 5.0, Q-Chem, Inc., Pleasanton, CA (2017)
 Q-Chem 5.0.2 for Intel X86 EM64T Linux

User input:
--------------------------------------------------------------
$molecule
0 2
C        1.5299284714    0.5921932666   -0.1546403636
C        0.8938036152   -0.7439933803    0.0246917941
C       -0.4027000747   -0.6733633792   -0.7095373695
C       -1.0425876342    0.6084717781    0.8558604760
C       -0.6187523129    0.8852342133   -0.5850591414
N        0.7276677004    1.5146299450   -0.5380684068
H        2.5783974638    0.7999288264    0.0566902427
H        1.4648546506   -1.6661954627    0.0737171237
H       -0.7860695375   -1.3672088890   -1.4520124631
H       -1.9018337010    0.9741392775    1.4013047100
H       -1.3005949966    1.4075603001   -1.2564752454
C       -0.4695131421   -0.7429648525    0.8222042915
H       -0.6887364236   -1.5889523321    1.4653780685
$end

$rem
method                b3lyp
basis                 6-31+g(d,p)
unrestricted          true
symmetry              off
sym_ignore            true
incdft                false
incfock               0
scf_convergence       6
thresh                14
jobtype               sp
scf_guess             read
scf_algorithm         diis
max_scf_cycles        100
stability_analysis    true
max_cis_cycles        100
cis_n_roots           4
$end

--------------------------------------------------------------

             Standard Nuclear Orientation (Angstroms)
    I     Atom           X                Y                Z
 ----------------------------------------------------------------
    1      C       1.5299284714     0.5921932666    -0.1546403636
    2      C       0.8938036152    -0.7439933803     0.0246917941
    3      C      -0.4027000747    -0.6733633792    -0.7095373695
    4      C      -1.0425876342     0.6084717781     0.8558604760
    5      C      -0.6187523129     0.8852342133    -0.5850591414
    6      N       0.7276677004     1.5146299450    -0.5380684068
    7      H       2.5783974638     0.7999288264     0.0566902427
    8      H       1.4648546506    -1.6661954627     0.0737171237
    9      H      -0.7860695375    -1.3672088890    -1.4520124631
   10      H      -1.9018337010     0.9741392775     1.4013047100
   11      H      -1.3005949966     1.4075603001    -1.2564752454
   12      C      -0.4695131421    -0.7429648525     0.8222042915
   13      H      -0.6887364236    -1.5889523321     1.4653780685
 ----------------------------------------------------------------

    2    -286.8577405463      1.93E-09 Convergence criterion met
 Total energy in the final basis set = -286.85774055

         TDDFT/TDA Excitation Energies
 ---------------------------------------------------

 Excited state   1: excitation energy (eV) =    3.2207
 Total energy for state  1:                  -286.73938068 au
    <S**2>     :  0.8152
    Trans. Mom.:  0.2620 X   0.0496 Y  -0.1695 Z
    Strength   :     0.0078795445
    S(  1) --> V(  1) amplitude =  0.9887 alpha

 Excited state   2: excitation energy (eV) =    4.0519
 Total energy for state  2:                  -286.70883636 au
    <S**2>     :  0.7933
    Trans. Mom.: -0.1415 X  -0.0604 Y  -0.1014 Z
    Strength   :     0.0033712577
    S(  1) --> V(  2) amplitude =  0.9745 alpha
    S(  1) --> V(  4) amplitude =  0.1586 alpha

 Excited state   3: excitation energy (eV) =    4.2249
 Total energy for state  3:                  -286.70247792 au
    <S**2>     :  2.0811
    Trans. Mom.: -0.0149 X  -0.0163 Y   0.0306 Z
    Strength   :     0.0001473393
    D( 23) --> V(  1) amplitude =  0.4984 alpha
    D( 23) --> S(  1) amplitude = -0.6812 beta
    D( 23) --> V(  1) amplitude = -0.3899 beta
    D( 24) --> S(  1) amplitude = -0.1602 beta

 Excited state   4: excitation energy (eV) =    4.3225
 Total energy for state  4:                  -286.69889268 au
    <S**2>     :  1.5366
    Trans. Mom.:  0.1183 X   0.0949 Y   0.0393 Z
    Strength   :     0.0025994154
    D( 24) --> V(  1) amplitude = -0.3181 alpha
    D( 23) --> S(  1) amplitude = -0.2484 beta
    D( 24) --> S(  1) amplitude =  0.8311 beta
    D( 24) --> V(  1) amplitude =  0.3274 beta

 ---------------------------------------------------

                    Orbital Energies (a.u.)
 --------------------------------------------------------------

 Alpha MOs
 -- Occupied --
-14.331 -10.230 -10.230 -10.226 -10.221 -10.221 -10.206  -0.975
 -0.868  -0.756  -0.666  -0.617  -0.582  -0.548  -0.522  -0.472
 -0.439  -0.422  -0.397  -0.374  -0.339  -0.324  -0.276  -0.268
 -0.181

 Beta MOs
 -- Occupied --
-14.331 -10.231 -10.229 -10.226 -10.220 -10.218 -10.193  -0.971
 -0.864  -0.746  -0.656  -0.612  -0.578  -0.545  -0.512  -0.470
 -0.434  -0.416  -0.394  -0.371  -0.329  -0.312  -0.272  -0.266

          Ground-State Mulliken Net Atomic Charges

     Atom                 Charge (a.u.)    Spin (a.u.)
  --------------------------------------------------------
      1 C                    -0.069067       0.011637
      2 C                    -0.084318       0.034651
      3 C                    -0.109300       0.133124
      4 C                    -0.057194       1.049715
      5 C                    -0.125878      -0.126172
      6 N                    -0.199383       0.025904
      7 H                     0.131681       0.004418
      8 H                     0.138862       0.002407
      9 H                     0.134713       0.006126
     10 H                     0.136996      -0.044159
     11 H                     0.132831       0.009314
     12 C                    -0.169840      -0.108459
     13 H                     0.139896       0.001495
  --------------------------------------------------------
  Sum of atomic charges =    -0.000000

                    Cartesian Multipole Moments
 -----------------------------------------------------------------
    Charge (ESU x 10^10)
                -0.0000
    Dipole Moment (Debye)
         X      -0.6697      Y      -2.9758      Z       0.2232
       Tot       3.0584
    Quadrupole Moments (Debye-Ang)
        XX     -37.8756     XY      -3.0460     YY     -45.1102
        XZ       1.0728     YZ       0.6543     ZZ     -41.8722

 Total job time:  213.56s(wall), 211.63s(cpu)
        *  Thank you very much for using Q-Chem.  Have a nice day.  *
