 Q-Chem 5.0, Q-Chem, Inc., Pleasanton, CA (2017)
 Q-Chem 5.0.2 for Intel X86 EM64T Linux

User input:
--------------------------------------------------------------
$molecule
0 2
C        1.5156601093    0.6065937158   -0.1393472137
C        0.9245491449   -0.7504467226   -0.0114805108
C       -0.3780618329   -0.6938810576   -0.7075987837
C       -1.0905906018    0.5719188792    0.8279566693
C       -0.6293880886    0.8652559333   -0.5941076961
N        0.6980911547    1.5150880079   -0.5285591757
H        2.5537852351    0.8333478985    0.0894564656
H        1.5226414238   -1.6534376985    0.0574919511
H       -0.7575517687   -1.3857116487   -1.4573028469
H       -1.7553204016    1.0959137626    1.5012025046
H       -1.3038438456    1.3736639952   -1.2833722179
C       -0.5529484317   -0.7684115150    0.8004658918
H       -0.7631580182   -1.6104142389    1.4492486791
$end

$rem
method                b3lyp
basis                 6-31g(d)
unrestricted          true
symmetry              off
sym_ignore            true
incdft                false
incfock               0
scf_convergence       8
thresh                14
jobtype               ts
scf_guess             read
scf_algorithm         diis
max_scf_cycles        100
geom_opt_max_cycles   500
geom_opt_dmax         100
geom_opt_tol_gradient 10
geom_opt_hessian      read
$end

--------------------------------------------------------------

    2    -286.8356696708      2.28E-10 Convergence criterion met
 Total energy in the final basis set = -286.83566967
   14    -286.8363710354      5.41E-09 Convergence criterion met
 Total energy in the final basis set = -286.83637104
   13    -286.8366642827      7.35E-09 Convergence criterion met
 Total energy in the final basis set = -286.83666428
   12    -286.8367084820      8.10E-09 Convergence criterion met
 Total energy in the final basis set = -286.83670848
   12    -286.8366756252      4.33E-09 Convergence criterion met
 Total energy in the final basis set = -286.83667563
   12    -286.8366265367      3.22E-09 Convergence criterion met
 Total energy in the final basis set = -286.83662654
   12    -286.8365764431      2.69E-09 Convergence criterion met
 Total energy in the final basis set = -286.83657644
   12    -286.8365303735      2.40E-09 Convergence criterion met
 Total energy in the final basis set = -286.83653037
   12    -286.8364919790      2.32E-09 Convergence criterion met
 Total energy in the final basis set = -286.83649198
   12    -286.8364634416      2.36E-09 Convergence criterion met
 Total energy in the final basis set = -286.83646344
   11    -286.8364460013      9.97E-09 Convergence criterion met
 Total energy in the final basis set = -286.83644600
   11    -286.8364399436      8.70E-09 Convergence criterion met
 Total energy in the final basis set = -286.83643994

             Standard Nuclear Orientation (Angstroms)
    I     Atom           X                Y                Z
 ----------------------------------------------------------------
    1      C       1.5299284714     0.5921932666    -0.1546403636
    2      C       0.8938036152    -0.7439933803     0.0246917941
    3      C      -0.4027000747    -0.6733633792    -0.7095373695
    4      C      -1.0425876342     0.6084717781     0.8558604760
    5      C      -0.6187523129     0.8852342133    -0.5850591414
    6      N       0.7276677004     1.5146299450    -0.5380684068
    7      H       2.5783974638     0.7999288264     0.0566902427
    8      H       1.4648546506    -1.6661954627     0.0737171237
    9      H      -0.7860695375    -1.3672088890    -1.4520124631
   10      H      -1.9018337010     0.9741392775     1.4013047100
   11      H      -1.3005949966     1.4075603001    -1.2564752454
   12      C      -0.4695131421    -0.7429648525     0.8222042915
   13      H      -0.6887364236    -1.5889523321     1.4653780685
 ----------------------------------------------------------------

    9    -286.8364398341      7.37E-09 Convergence criterion met
 Total energy in the final basis set = -286.83643983
 Final energy is   -286.836439834093
 **  OPTIMIZATION CONVERGED  **

                    Orbital Energies (a.u.)
 --------------------------------------------------------------

 Alpha MOs
 -- Occupied --
-14.316 -10.220 -10.219 -10.215 -10.211 -10.210 -10.194  -0.963
 -0.857  -0.746  -0.656  -0.607  -0.573  -0.539  -0.515  -0.462
 -0.430  -0.412  -0.387  -0.365  -0.329  -0.313  -0.264  -0.255
 -0.170

 Beta MOs
 -- Occupied --
-14.316 -10.221 -10.219 -10.216 -10.209 -10.208 -10.181  -0.959
 -0.852  -0.735  -0.646  -0.602  -0.569  -0.537  -0.504  -0.460
 -0.426  -0.406  -0.383  -0.361  -0.318  -0.301  -0.261  -0.253

          Ground-State Mulliken Net Atomic Charges

     Atom                 Charge (a.u.)    Spin (a.u.)
  --------------------------------------------------------
      1 C                     0.095478       0.016440
      2 C                    -0.192622       0.054663
      3 C                    -0.104647       0.105080
      4 C                    -0.068366       0.957701
      5 C                    -0.101310      -0.054180
      6 N                    -0.340122       0.014081
      7 H                     0.142909       0.004195
      8 H                     0.147841       0.001681
      9 H                     0.149130       0.005859
     10 H                     0.142541      -0.045079
     11 H                     0.140791       0.008714
     12 C                    -0.160036      -0.070900
     13 H                     0.148411       0.001746
  --------------------------------------------------------
  Sum of atomic charges =     0.000000

                    Cartesian Multipole Moments
 -----------------------------------------------------------------
    Charge (ESU x 10^10)
                 0.0000
    Dipole Moment (Debye)
         X      -0.6207      Y      -2.6446      Z       0.2479
       Tot       2.7278
    Quadrupole Moments (Debye-Ang)
        XX     -37.0403     XY      -2.6710     YY     -43.3593
        XZ       0.8493     YZ       0.7422     ZZ     -40.5569

 Total job time:  121.84s(wall), 463.33s(cpu)
        *  Thank you very much for using Q-Chem.  Have a nice day.  *
