 Q-Chem 5.0, Q-Chem, Inc., Pleasanton, CA (2017)
 Q-Chem 5.0.2 for Intel X86 EM64T Linux

User input:
--------------------------------------------------------------
$molecule
0 2
C        1.5126256955    0.5718827943   -0.1265345956
C        0.8242103590   -0.7654870928    0.0075501159
C       -0.3373483257   -0.6220407174   -0.9227065200
C       -1.1017192754    0.5040942641    0.7909218149
C       -0.6327356438    0.8668113360   -0.6144183946
N        0.7199768901    1.5058017760   -0.5041400591
H        2.5549161358    0.7612122999    0.1212627937
H        1.4016104120   -1.6860700303    0.0411042303
H       -0.8272480085   -1.3411343797   -1.5629885816
H       -1.8723948755    0.9418594009    1.4085591551
H       -1.3062060044    1.4370082431   -1.2514671036
C       -0.3823661472   -0.6887704934    0.9510658830
H       -0.5694571332   -1.4856880896    1.6658449782
$end

$rem
method                b3lyp
basis                 6-31+g(d,p)
unrestricted          true
symmetry              off
sym_ignore            true
incdft                false
incfock               0
scf_convergence       8
thresh                14
jobtype               freq
scf_guess             read
scf_algorithm         diis
max_scf_cycles        100
$end

--------------------------------------------------------------

             Standard Nuclear Orientation (Angstroms)
    I     Atom           X                Y                Z
 ----------------------------------------------------------------
    1      C       1.5126256955     0.5718827943    -0.1265345956
    2      C       0.8242103590    -0.7654870928     0.0075501159
    3      C      -0.3373483257    -0.6220407174    -0.9227065200
    4      C      -1.1017192754     0.5040942641     0.7909218149
    5      C      -0.6327356438     0.8668113360    -0.6144183946
    6      N       0.7199768901     1.5058017760    -0.5041400591
    7      H       2.5549161358     0.7612122999     0.1212627937
    8      H       1.4016104120    -1.6860700303     0.0411042303
    9      H      -0.8272480085    -1.3411343797    -1.5629885816
   10      H      -1.8723948755     0.9418594009     1.4085591551
   11      H      -1.3062060044     1.4370082431    -1.2514671036
   12      C      -0.3823661472    -0.6887704934     0.9510658830
   13      H      -0.5694571332    -1.4856880896     1.6658449782
 ----------------------------------------------------------------

    2    -286.8438085221      4.62E-10 Convergence criterion met
 Total energy in the final basis set = -286.84380852

                    Orbital Energies (a.u.)
 --------------------------------------------------------------

 Alpha MOs
 -- Occupied --
-14.334 -10.234 -10.231 -10.229 -10.225 -10.222 -10.199  -0.969
 -0.850  -0.750  -0.690  -0.601  -0.587  -0.546  -0.524  -0.474
 -0.436  -0.418  -0.409  -0.387  -0.351  -0.307  -0.287  -0.266
 -0.152

 Beta MOs
 -- Occupied --
-14.334 -10.236 -10.232 -10.228 -10.225 -10.214 -10.189  -0.965
 -0.844  -0.743  -0.680  -0.597  -0.577  -0.544  -0.516  -0.469
 -0.432  -0.413  -0.407  -0.385  -0.346  -0.291  -0.277  -0.262

          Ground-State Mulliken Net Atomic Charges

     Atom                 Charge (a.u.)    Spin (a.u.)
  --------------------------------------------------------
      1 C                    -0.063613       0.042036
      2 C                    -0.017033      -0.033110
      3 C                    -0.277472       0.641404
      4 C                    -0.132407       0.739543
      5 C                     0.013397      -0.124136
      6 N                    -0.206555      -0.002906
      7 H                     0.134929       0.001368
      8 H                     0.131544       0.003579
      9 H                     0.147188      -0.027942
     10 H                     0.138889      -0.030605
     11 H                     0.130435       0.008203
     12 C                    -0.139961      -0.229995
     13 H                     0.140660       0.012562
  --------------------------------------------------------
  Sum of atomic charges =    -0.000000

                    Cartesian Multipole Moments
 -----------------------------------------------------------------
    Charge (ESU x 10^10)
                -0.0000
    Dipole Moment (Debye)
         X      -0.4196      Y      -2.8618      Z       0.5612
       Tot       2.9463
    Quadrupole Moments (Debye-Ang)
        XX     -38.6308     XY      -3.3753     YY     -45.0473
        XZ       1.4884     YZ       0.3770     ZZ     -41.7087

 Frequency:      -744.22                 263.05                 349.39
 Force Cnst:      1.8045                 0.0482                 0.0759
 Red. Mass:       5.5298                 1.1812                 1.0556
 IR Intens:       59.439                 14.990                 37.822
 Frequency:       449.65                 475.73                 592.05
 Force Cnst:      0.5601                 0.5351                 0.7684
 Red. Mass:       4.7018                 4.0129                 3.7207
 IR Intens:        7.094                 10.037                  3.840
 Frequency:       715.53                 783.61                 809.33
 Force Cnst:      2.0717                 1.8219                 0.8980
 Red. Mass:       6.8679                 5.0359                 2.3269
 IR Intens:        0.598                  5.573                  5.910
 Frequency:       856.76                 875.17                 897.31
 Force Cnst:      1.3448                 1.1823                 0.8400
 Red. Mass:       3.1096                 2.6201                 1.7707
 IR Intens:        4.571                 27.315                  3.361
 Frequency:       908.71                 918.05                 938.83
 Force Cnst:      0.8774                 1.1384                 1.1303
 Red. Mass:       1.8035                 2.2924                 2.1766
 IR Intens:       10.463                  9.599                  3.040
 Frequency:       961.84                1024.23                1084.37
 Force Cnst:      0.8969                 1.0893                 1.1527
 Red. Mass:       1.6455                 1.7624                 1.6639
 IR Intens:        7.493                  6.161                  5.392
 Frequency:      1138.46                1180.12                1217.46
 Force Cnst:      1.3315                 1.7417                 1.1832
 Red. Mass:       1.7436                 2.1226                 1.3549
 IR Intens:        4.767                  5.485                  1.662
 Frequency:      1262.32                1281.96                1307.01
 Force Cnst:      1.1547                 1.3870                 1.9913
 Red. Mass:       1.2299                 1.4325                 1.9785
 IR Intens:        1.262                  3.551                 14.592
 Frequency:      1321.33                1405.21                1642.31
 Force Cnst:      1.6081                 3.0492                12.4592
 Red. Mass:       1.5633                 2.6209                 7.8403
 IR Intens:       20.353                  1.991                 26.599
 Frequency:      3161.18                3171.28                3183.25
 Force Cnst:      6.4204                 6.4579                 6.5318
 Red. Mass:       1.0905                 1.0899                 1.0941
 IR Intens:       23.080                  6.741                 16.828
 Frequency:      3190.83                3266.09                3272.34
 Force Cnst:      6.5572                 6.8789                 6.9187
 Red. Mass:       1.0931                 1.0945                 1.0966
 IR Intens:       17.658                  0.406                  0.752

 STANDARD THERMODYNAMIC QUANTITIES AT   298.15 K  AND     1.00 ATM

   This Molecule has  1 Imaginary Frequencies
   Zero point vibrational energy:       62.765 kcal/mol

   Atom    1 Element C  Has Mass   12.00000
   Atom    2 Element C  Has Mass   12.00000
   Atom    3 Element C  Has Mass   12.00000
   Atom    4 Element C  Has Mass   12.00000
   Atom    5 Element C  Has Mass   12.00000
   Atom    6 Element N  Has Mass   14.00307
   Atom    7 Element H  Has Mass    1.00783
   Atom    8 Element H  Has Mass    1.00783
   Atom    9 Element H  Has Mass    1.00783
   Atom   10 Element H  Has Mass    1.00783
   Atom   11 Element H  Has Mass    1.00783
   Atom   12 Element C  Has Mass   12.00000
   Atom   13 Element H  Has Mass    1.00783
   Molecular Mass:    92.050050 amu
   Principal axes and moments of inertia in amu*Bohr^2:
                             1           2           3
    Eigenvalues --      377.16655   457.98975   570.87276
          X               0.74956    -0.61616     0.24187
          Y               0.53907     0.78027     0.31715
          Z              -0.38414    -0.10734     0.91702
   Rotational Symmetry Number is   1
   The Molecule is an Asymmetric Top
   Translational Enthalpy:        0.889 kcal/mol
   Rotational Enthalpy:           0.889 kcal/mol
   Vibrational Enthalpy:         64.213 kcal/mol
   gas constant (RT):             0.592 kcal/mol
   Translational Entropy:        39.471  cal/mol.K
   Rotational Entropy:           26.092  cal/mol.K
   Vibrational Entropy:           6.881  cal/mol.K

   Total Enthalpy:               66.583 kcal/mol
   Total Entropy:                72.443  cal/mol.K

 Total job time:  559.14s(wall), 556.92s(cpu)
        *  Thank you very much for using Q-Chem.  Have a nice day.  *
