 Q-Chem 5.0, Q-Chem, Inc., Pleasanton, CA (2017)
 Q-Chem 5.0.2 for Intel X86 EM64T Linux

User input:
--------------------------------------------------------------
$molecule
0 2
C        1.5299284714    0.5921932666   -0.1546403636
C        0.8938036152   -0.7439933803    0.0246917941
C       -0.4027000747   -0.6733633792   -0.7095373695
C       -1.0425876342    0.6084717781    0.8558604760
C       -0.6187523129    0.8852342133   -0.5850591414
N        0.7276677004    1.5146299450   -0.5380684068
H        2.5783974638    0.7999288264    0.0566902427
H        1.4648546506   -1.6661954627    0.0737171237
H       -0.7860695375   -1.3672088890   -1.4520124631
H       -1.9018337010    0.9741392775    1.4013047100
H       -1.3005949966    1.4075603001   -1.2564752454
C       -0.4695131421   -0.7429648525    0.8222042915
H       -0.6887364236   -1.5889523321    1.4653780685
$end

$rem
method                b3lyp
basis                 6-31+g(d,p)
unrestricted          true
symmetry              off
sym_ignore            true
incdft                false
incfock               0
scf_convergence       8
thresh                14
jobtype               freq
scf_guess             read
scf_algorithm         diis
max_scf_cycles        100
$end

--------------------------------------------------------------

             Standard Nuclear Orientation (Angstroms)
    I     Atom           X                Y                Z
 ----------------------------------------------------------------
    1      C       1.5299284714     0.5921932666    -0.1546403636
    2      C       0.8938036152    -0.7439933803     0.0246917941
    3      C      -0.4027000747    -0.6733633792    -0.7095373695
    4      C      -1.0425876342     0.6084717781     0.8558604760
    5      C      -0.6187523129     0.8852342133    -0.5850591414
    6      N       0.7276677004     1.5146299450    -0.5380684068
    7      H       2.5783974638     0.7999288264     0.0566902427
    8      H       1.4648546506    -1.6661954627     0.0737171237
    9      H      -0.7860695375    -1.3672088890    -1.4520124631
   10      H      -1.9018337010     0.9741392775     1.4013047100
   11      H      -1.3005949966     1.4075603001    -1.2564752454
   12      C      -0.4695131421    -0.7429648525     0.8222042915
   13      H      -0.6887364236    -1.5889523321     1.4653780685
 ----------------------------------------------------------------

    2    -286.8577405463      1.18E-09 Convergence criterion met
 Total energy in the final basis set = -286.85774055

                    Orbital Energies (a.u.)
 --------------------------------------------------------------

 Alpha MOs
 -- Occupied --
-14.331 -10.230 -10.230 -10.226 -10.221 -10.221 -10.206  -0.975
 -0.868  -0.756  -0.666  -0.617  -0.582  -0.548  -0.522  -0.472
 -0.439  -0.422  -0.397  -0.374  -0.339  -0.324  -0.276  -0.268
 -0.181

 Beta MOs
 -- Occupied --
-14.331 -10.231 -10.229 -10.226 -10.220 -10.218 -10.193  -0.971
 -0.864  -0.746  -0.656  -0.612  -0.578  -0.545  -0.512  -0.470
 -0.434  -0.416  -0.394  -0.371  -0.329  -0.312  -0.272  -0.266

          Ground-State Mulliken Net Atomic Charges

     Atom                 Charge (a.u.)    Spin (a.u.)
  --------------------------------------------------------
      1 C                    -0.069067       0.011638
      2 C                    -0.084318       0.034651
      3 C                    -0.109300       0.133124
      4 C                    -0.057194       1.049715
      5 C                    -0.125878      -0.126172
      6 N                    -0.199383       0.025904
      7 H                     0.131681       0.004417
      8 H                     0.138862       0.002407
      9 H                     0.134713       0.006126
     10 H                     0.136996      -0.044159
     11 H                     0.132831       0.009314
     12 C                    -0.169840      -0.108459
     13 H                     0.139896       0.001495
  --------------------------------------------------------
  Sum of atomic charges =    -0.000000

                    Cartesian Multipole Moments
 -----------------------------------------------------------------
    Charge (ESU x 10^10)
                -0.0000
    Dipole Moment (Debye)
         X      -0.6697      Y      -2.9758      Z       0.2232
       Tot       3.0584
    Quadrupole Moments (Debye-Ang)
        XX     -37.8756     XY      -3.0460     YY     -45.1102
        XZ       1.0728     YZ       0.6543     ZZ     -41.8722

 Frequency:      -231.80                 397.40                 439.05
 Force Cnst:      0.0353                 0.4233                 0.4844
 Red. Mass:       1.1144                 4.5496                 4.2647
 IR Intens:       38.342                  1.630                  1.864
 Frequency:       582.46                 644.58                 711.94
 Force Cnst:      1.0941                 1.0066                 1.9012
 Red. Mass:       5.4734                 4.1121                 6.3664
 IR Intens:        8.393                  3.311                  1.533
 Frequency:       765.12                 782.02                 831.98
 Force Cnst:      0.6775                 0.7729                 1.6132
 Red. Mass:       1.9644                 2.1450                 3.9555
 IR Intens:        9.217                 14.625                  1.269
 Frequency:       861.16                 893.03                 916.38
 Force Cnst:      0.8315                 1.0537                 0.8402
 Red. Mass:       1.9030                 2.2425                 1.6982
 IR Intens:        7.123                 18.201                 10.032
 Frequency:       926.35                 963.35                 976.81
 Force Cnst:      1.0579                 0.9861                 0.9366
 Red. Mass:       2.0924                 1.8034                 1.6660
 IR Intens:        4.597                 15.162                  2.378
 Frequency:       994.25                1046.06                1066.66
 Force Cnst:      1.6116                 0.8471                 1.1429
 Red. Mass:       2.7671                 1.3139                 1.7050
 IR Intens:       24.454                  0.215                  2.587
 Frequency:      1079.41                1158.62                1211.20
 Force Cnst:      1.3058                 1.7860                 1.1366
 Red. Mass:       1.9022                 2.2581                 1.3150
 IR Intens:        4.420                  3.541                  0.588
 Frequency:      1254.87                1267.45                1318.33
 Force Cnst:      1.5788                 1.1738                 1.7005
 Red. Mass:       1.7016                 1.2402                 1.6606
 IR Intens:       13.950                  0.117                 13.062
 Frequency:      1334.14                1362.61                1657.30
 Force Cnst:      1.8925                 2.4325                12.8050
 Red. Mass:       1.8046                 2.2236                 7.9127
 IR Intens:        7.463                 12.707                 28.778
 Frequency:      3139.17                3163.76                3184.78
 Force Cnst:      6.3286                 6.4418                 6.5238
 Red. Mass:       1.0900                 1.0923                 1.0917
 IR Intens:       25.365                 18.191                 16.504
 Frequency:      3193.40                3205.26                3256.49
 Force Cnst:      6.5642                 6.6337                 6.8443
 Red. Mass:       1.0925                 1.0959                 1.0954
 IR Intens:        5.913                 16.828                  5.190

 STANDARD THERMODYNAMIC QUANTITIES AT   298.15 K  AND     1.00 ATM

   This Molecule has  1 Imaginary Frequencies
   Zero point vibrational energy:       63.738 kcal/mol

   Atom    1 Element C  Has Mass   12.00000
   Atom    2 Element C  Has Mass   12.00000
   Atom    3 Element C  Has Mass   12.00000
   Atom    4 Element C  Has Mass   12.00000
   Atom    5 Element C  Has Mass   12.00000
   Atom    6 Element N  Has Mass   14.00307
   Atom    7 Element H  Has Mass    1.00783
   Atom    8 Element H  Has Mass    1.00783
   Atom    9 Element H  Has Mass    1.00783
   Atom   10 Element H  Has Mass    1.00783
   Atom   11 Element H  Has Mass    1.00783
   Atom   12 Element C  Has Mass   12.00000
   Atom   13 Element H  Has Mass    1.00783
   Molecular Mass:    92.050050 amu
   Principal axes and moments of inertia in amu*Bohr^2:
                             1           2           3
    Eigenvalues --      362.09821   451.23794   592.35487
          X               0.74754    -0.61455     0.25202
          Y               0.56245     0.78750     0.25198
          Z              -0.35332    -0.04661     0.93434
   Rotational Symmetry Number is   1
   The Molecule is an Asymmetric Top
   Translational Enthalpy:        0.889 kcal/mol
   Rotational Enthalpy:           0.889 kcal/mol
   Vibrational Enthalpy:         64.842 kcal/mol
   gas constant (RT):             0.592 kcal/mol
   Translational Entropy:        39.471  cal/mol.K
   Rotational Entropy:           26.073  cal/mol.K
   Vibrational Entropy:           4.912  cal/mol.K

   Total Enthalpy:               67.212 kcal/mol
   Total Entropy:                70.456  cal/mol.K

 Total job time:  541.72s(wall), 539.12s(cpu)
        *  Thank you very much for using Q-Chem.  Have a nice day.  *
