 Q-Chem 5.0, Q-Chem, Inc., Pleasanton, CA (2017)
 Q-Chem 5.0.2 for Intel X86 EM64T Linux

User input:
--------------------------------------------------------------
$molecule
0 2
C        1.5156601093    0.6065937158   -0.1393472137
C        0.9245491449   -0.7504467226   -0.0114805108
C       -0.3780618329   -0.6938810576   -0.7075987837
C       -1.0905906018    0.5719188792    0.8279566693
C       -0.6293880886    0.8652559333   -0.5941076961
N        0.6980911547    1.5150880079   -0.5285591757
H        2.5537852351    0.8333478985    0.0894564656
H        1.5226414238   -1.6534376985    0.0574919511
H       -0.7575517687   -1.3857116487   -1.4573028469
H       -1.7553204016    1.0959137626    1.5012025046
H       -1.3038438456    1.3736639952   -1.2833722179
C       -0.5529484317   -0.7684115150    0.8004658918
H       -0.7631580182   -1.6104142389    1.4492486791
$end

$rem
method                b3lyp
basis                 6-31g(d)
unrestricted          true
symmetry              off
sym_ignore            true
incdft                false
incfock               0
scf_convergence       8
thresh                14
jobtype               sp
scf_guess             core
scf_guess_mix         5
scf_algorithm         diis
max_scf_cycles        100
$end

--------------------------------------------------------------

             Standard Nuclear Orientation (Angstroms)
    I     Atom           X                Y                Z
 ----------------------------------------------------------------
    1      C       1.5156601093     0.6065937158    -0.1393472137
    2      C       0.9245491449    -0.7504467226    -0.0114805108
    3      C      -0.3780618329    -0.6938810576    -0.7075987837
    4      C      -1.0905906018     0.5719188792     0.8279566693
    5      C      -0.6293880886     0.8652559333    -0.5941076961
    6      N       0.6980911547     1.5150880079    -0.5285591757
    7      H       2.5537852351     0.8333478985     0.0894564656
    8      H       1.5226414238    -1.6534376985     0.0574919511
    9      H      -0.7575517687    -1.3857116487    -1.4573028469
   10      H      -1.7553204016     1.0959137626     1.5012025046
   11      H      -1.3038438456     1.3736639952    -1.2833722179
   12      C      -0.5529484317    -0.7684115150     0.8004658918
   13      H      -0.7631580182    -1.6104142389     1.4492486791
 ----------------------------------------------------------------

   22    -286.8356696708      4.87E-09 Convergence criterion met
 Total energy in the final basis set = -286.83566967

                    Orbital Energies (a.u.)
 --------------------------------------------------------------

 Alpha MOs
 -- Occupied --
-14.314 -10.220 -10.217 -10.216 -10.212 -10.209 -10.196  -0.960
 -0.853  -0.746  -0.658  -0.610  -0.567  -0.536  -0.519  -0.463
 -0.433  -0.412  -0.388  -0.361  -0.331  -0.315  -0.260  -0.254
 -0.171

 Beta MOs
 -- Occupied --
-14.313 -10.221 -10.218 -10.216 -10.209 -10.207 -10.184  -0.956
 -0.848  -0.735  -0.649  -0.603  -0.564  -0.534  -0.509  -0.460
 -0.429  -0.406  -0.383  -0.357  -0.316  -0.308  -0.253  -0.252

          Ground-State Mulliken Net Atomic Charges

     Atom                 Charge (a.u.)    Spin (a.u.)
  --------------------------------------------------------
      1 C                     0.094583       0.019366
      2 C                    -0.195291       0.138713
      3 C                    -0.104061       0.080529
      4 C                    -0.060657       0.911040
      5 C                    -0.095251      -0.062504
      6 N                    -0.349170       0.035609
      7 H                     0.141098       0.004591
      8 H                     0.147775      -0.000362
      9 H                     0.147868       0.003778
     10 H                     0.143956      -0.040876
     11 H                     0.140912       0.015351
     12 C                    -0.160501      -0.108231
     13 H                     0.148739       0.002994
  --------------------------------------------------------
  Sum of atomic charges =     0.000000

                    Cartesian Multipole Moments
 -----------------------------------------------------------------
    Charge (ESU x 10^10)
                 0.0000
    Dipole Moment (Debye)
         X      -0.5916      Y      -2.5089      Z       0.3977
       Tot       2.6082
    Quadrupole Moments (Debye-Ang)
        XX     -37.5171     XY      -2.6759     YY     -43.0984
        XZ       0.6941     YZ       1.1242     ZZ     -40.1708

 Total job time:  14.43s(wall), 54.95s(cpu)
        *  Thank you very much for using Q-Chem.  Have a nice day.  *
