 Q-Chem 5.0, Q-Chem, Inc., Pleasanton, CA (2017)
 Q-Chem 5.0.2 for Intel X86 EM64T Linux

User input:
--------------------------------------------------------------
$molecule
0 2
C        1.5299284714    0.5921932666   -0.1546403636
C        0.8938036152   -0.7439933803    0.0246917941
C       -0.4027000747   -0.6733633792   -0.7095373695
C       -1.0425876342    0.6084717781    0.8558604760
C       -0.6187523129    0.8852342133   -0.5850591414
N        0.7276677004    1.5146299450   -0.5380684068
H        2.5783974638    0.7999288264    0.0566902427
H        1.4648546506   -1.6661954627    0.0737171237
H       -0.7860695375   -1.3672088890   -1.4520124631
H       -1.9018337010    0.9741392775    1.4013047100
H       -1.3005949966    1.4075603001   -1.2564752454
C       -0.4695131421   -0.7429648525    0.8222042915
H       -0.6887364236   -1.5889523321    1.4653780685
$end

$rem
method                b3lyp
basis                 6-31+g(d,p)
unrestricted          true
symmetry              off
sym_ignore            true
incdft                false
incfock               0
scf_convergence       8
thresh                14
jobtype               ts
scf_guess             read
scf_algorithm         diis
max_scf_cycles        100
geom_opt_max_cycles   500
geom_opt_dmax         100
geom_opt_tol_gradient 10
geom_opt_hessian      read
$end

--------------------------------------------------------------

    2    -286.8577405464      1.57E-10 Convergence criterion met
 Total energy in the final basis set = -286.85774055
   11    -286.8577291838      5.73E-09 Convergence criterion met
 Total energy in the final basis set = -286.85772918
   11    -286.8577161396      6.45E-09 Convergence criterion met
 Total energy in the final basis set = -286.85771614
   11    -286.8577012447      7.25E-09 Convergence criterion met
 Total energy in the final basis set = -286.85770124
   11    -286.8576826265      7.52E-09 Convergence criterion met
 Total energy in the final basis set = -286.85768263
   11    -286.8576558815      7.39E-09 Convergence criterion met
 Total energy in the final basis set = -286.85765588
   11    -286.8576151317      7.05E-09 Convergence criterion met
 Total energy in the final basis set = -286.85761513
   11    -286.8575530070      6.61E-09 Convergence criterion met
   12    -286.8438084088      8.80E-09 Convergence criterion met
 Total energy in the final basis set = -286.84380841
   12    -286.8438095734      7.55E-09 Convergence criterion met
 Total energy in the final basis set = -286.84380957
   12    -286.8438072141      9.48E-09 Convergence criterion met
 Total energy in the final basis set = -286.84380721
   11    -286.8438084399      6.58E-09 Convergence criterion met
 Total energy in the final basis set = -286.84380844
   13    -286.8438090677      3.88E-09 Convergence criterion met
 Total energy in the final basis set = -286.84380907
   13    -286.8438085133      3.09E-09 Convergence criterion met
 Total energy in the final basis set = -286.84380851

             Standard Nuclear Orientation (Angstroms)
    I     Atom           X                Y                Z
 ----------------------------------------------------------------
    1      C       1.5126256955     0.5718827943    -0.1265345956
    2      C       0.8242103590    -0.7654870928     0.0075501159
    3      C      -0.3373483257    -0.6220407174    -0.9227065200
    4      C      -1.1017192754     0.5040942641     0.7909218149
    5      C      -0.6327356438     0.8668113360    -0.6144183946
    6      N       0.7199768901     1.5058017760    -0.5041400591
    7      H       2.5549161358     0.7612122999     0.1212627937
    8      H       1.4016104120    -1.6860700303     0.0411042303
    9      H      -0.8272480085    -1.3411343797    -1.5629885816
   10      H      -1.8723948755     0.9418594009     1.4085591551
   11      H      -1.3062060044     1.4370082431    -1.2514671036
   12      C      -0.3823661472    -0.6887704934     0.9510658830
   13      H      -0.5694571332    -1.4856880896     1.6658449782
 ----------------------------------------------------------------

   10    -286.8438085221      7.78E-09 Convergence criterion met
 Total energy in the final basis set = -286.84380852
 Final energy is   -286.843808522148
 **  OPTIMIZATION CONVERGED  **

                    Orbital Energies (a.u.)
 --------------------------------------------------------------

 Alpha MOs
 -- Occupied --
-14.334 -10.234 -10.231 -10.229 -10.225 -10.222 -10.199  -0.969
 -0.850  -0.750  -0.690  -0.601  -0.587  -0.546  -0.524  -0.474
 -0.436  -0.418  -0.409  -0.387  -0.351  -0.307  -0.287  -0.266
 -0.152

 Beta MOs
 -- Occupied --
-14.334 -10.236 -10.232 -10.228 -10.225 -10.214 -10.189  -0.965
 -0.844  -0.743  -0.680  -0.597  -0.577  -0.544  -0.516  -0.469
 -0.432  -0.413  -0.407  -0.385  -0.346  -0.291  -0.277  -0.262

          Ground-State Mulliken Net Atomic Charges

     Atom                 Charge (a.u.)    Spin (a.u.)
  --------------------------------------------------------
      1 C                    -0.063613       0.042036
      2 C                    -0.017033      -0.033110
      3 C                    -0.277473       0.641403
      4 C                    -0.132407       0.739543
      5 C                     0.013397      -0.124136
      6 N                    -0.206555      -0.002906
      7 H                     0.134929       0.001368
      8 H                     0.131544       0.003579
      9 H                     0.147188      -0.027941
     10 H                     0.138889      -0.030606
     11 H                     0.130435       0.008203
     12 C                    -0.139961      -0.229995
     13 H                     0.140660       0.012561
  --------------------------------------------------------
  Sum of atomic charges =    -0.000000

                    Cartesian Multipole Moments
 -----------------------------------------------------------------
    Charge (ESU x 10^10)
                -0.0000
    Dipole Moment (Debye)
         X      -0.4196      Y      -2.8618      Z       0.5612
       Tot       2.9463
    Quadrupole Moments (Debye-Ang)
        XX     -38.6308     XY      -3.3753     YY     -45.0473
        XZ       1.4884     YZ       0.3770     ZZ     -41.7087

 Total job time:  1668.89s(wall), 6473.21s(cpu)
        *  Thank you very much for using Q-Chem.  Have a nice day.  *
