 Q-Chem 5.0, Q-Chem, Inc., Pleasanton, CA (2017)
 Q-Chem 5.0.2 for Intel X86 EM64T Linux

User input:
--------------------------------------------------------------
$molecule
0 2
C        1.5156601093    0.6065937158   -0.1393472137
C        0.9245491449   -0.7504467226   -0.0114805108
C       -0.3780618329   -0.6938810576   -0.7075987837
C       -1.0905906018    0.5719188792    0.8279566693
C       -0.6293880886    0.8652559333   -0.5941076961
N        0.6980911547    1.5150880079   -0.5285591757
H        2.5537852351    0.8333478985    0.0894564656
H        1.5226414238   -1.6534376985    0.0574919511
H       -0.7575517687   -1.3857116487   -1.4573028469
H       -1.7553204016    1.0959137626    1.5012025046
H       -1.3038438456    1.3736639952   -1.2833722179
C       -0.5529484317   -0.7684115150    0.8004658918
H       -0.7631580182   -1.6104142389    1.4492486791
$end

$rem
method                b3lyp
basis                 6-31g(d)
unrestricted          true
symmetry              off
sym_ignore            true
incdft                false
incfock               0
scf_convergence       8
thresh                14
jobtype               freq
scf_guess             read
scf_algorithm         diis
max_scf_cycles        100
$end

--------------------------------------------------------------

             Standard Nuclear Orientation (Angstroms)
    I     Atom           X                Y                Z
 ----------------------------------------------------------------
    1      C       1.5156601093     0.6065937158    -0.1393472137
    2      C       0.9245491449    -0.7504467226    -0.0114805108
    3      C      -0.3780618329    -0.6938810576    -0.7075987837
    4      C      -1.0905906018     0.5719188792     0.8279566693
    5      C      -0.6293880886     0.8652559333    -0.5941076961
    6      N       0.6980911547     1.5150880079    -0.5285591757
    7      H       2.5537852351     0.8333478985     0.0894564656
    8      H       1.5226414238    -1.6534376985     0.0574919511
    9      H      -0.7575517687    -1.3857116487    -1.4573028469
   10      H      -1.7553204016     1.0959137626     1.5012025046
   11      H      -1.3038438456     1.3736639952    -1.2833722179
   12      C      -0.5529484317    -0.7684115150     0.8004658918
   13      H      -0.7631580182    -1.6104142389     1.4492486791
 ----------------------------------------------------------------

    2    -286.8356696789      5.60E-10 Convergence criterion met
 Total energy in the final basis set = -286.83566968

                    Orbital Energies (a.u.)
 --------------------------------------------------------------

 Alpha MOs
 -- Occupied --
-14.314 -10.220 -10.217 -10.216 -10.212 -10.209 -10.196  -0.960
 -0.853  -0.746  -0.658  -0.610  -0.567  -0.536  -0.519  -0.463
 -0.433  -0.412  -0.388  -0.361  -0.331  -0.315  -0.260  -0.254
 -0.171

 Beta MOs
 -- Occupied --
-14.313 -10.221 -10.218 -10.216 -10.209 -10.207 -10.184  -0.956
 -0.848  -0.735  -0.649  -0.603  -0.564  -0.534  -0.509  -0.460
 -0.429  -0.406  -0.383  -0.357  -0.316  -0.308  -0.253  -0.252

          Ground-State Mulliken Net Atomic Charges

     Atom                 Charge (a.u.)    Spin (a.u.)
  --------------------------------------------------------
      1 C                     0.094583       0.019366
      2 C                    -0.195291       0.138712
      3 C                    -0.104061       0.080529
      4 C                    -0.060657       0.911039
      5 C                    -0.095251      -0.062503
      6 N                    -0.349170       0.035609
      7 H                     0.141098       0.004591
      8 H                     0.147775      -0.000362
      9 H                     0.147868       0.003778
     10 H                     0.143956      -0.040876
     11 H                     0.140912       0.015351
     12 C                    -0.160501      -0.108229
     13 H                     0.148739       0.002994
  --------------------------------------------------------
  Sum of atomic charges =     0.000000

                    Cartesian Multipole Moments
 -----------------------------------------------------------------
    Charge (ESU x 10^10)
                 0.0000
    Dipole Moment (Debye)
         X      -0.5916      Y      -2.5089      Z       0.3977
       Tot       2.6082
    Quadrupole Moments (Debye-Ang)
        XX     -37.5171     XY      -2.6759     YY     -43.0984
        XZ       0.6941     YZ       1.1242     ZZ     -40.1708

 Frequency:      -299.77                 295.73                 383.36
 Force Cnst:      0.0744                 0.1618                 0.3671
 Red. Mass:       1.4049                 3.1398                 4.2397
 IR Intens:       16.252                 11.675                  1.793
 Frequency:       453.43                 593.25                 710.93
 Force Cnst:      0.5759                 0.7490                 1.9726
 Red. Mass:       4.7545                 3.6122                 6.6242
 IR Intens:        5.523                  7.253                  2.129
 Frequency:       763.44                 793.24                 838.66
 Force Cnst:      0.5983                 0.8572                 0.7925
 Red. Mass:       1.7422                 2.3123                 1.9124
 IR Intens:       22.777                  3.108                  2.313
 Frequency:       868.23                 896.17                 914.41
 Force Cnst:      1.0632                 0.9246                 0.8791
 Red. Mass:       2.3940                 1.9540                 1.7845
 IR Intens:        9.661                 13.086                  6.081
 Frequency:       927.20                 967.42                 973.87
 Force Cnst:      1.1138                 1.6754                 0.9318
 Red. Mass:       2.1989                 3.0383                 1.6675
 IR Intens:        8.195                 24.628                  1.332
 Frequency:      1001.74                1032.19                1052.65
 Force Cnst:      1.1489                 0.8796                 0.8612
 Red. Mass:       1.9432                 1.4013                 1.3191
 IR Intens:        7.091                  6.294                  5.480
 Frequency:      1094.44                1167.88                1215.28
 Force Cnst:      1.7858                 1.6297                 1.2346
 Red. Mass:       2.5305                 2.0280                 1.4188
 IR Intens:        5.256                  4.779                  1.644
 Frequency:      1266.62                1271.63                1332.21
 Force Cnst:      1.2455                 1.4605                 1.8011
 Red. Mass:       1.3177                 1.5330                 1.7225
 IR Intens:        3.767                  4.580                 13.800
 Frequency:      1342.31                1360.36                1652.44
 Force Cnst:      2.0524                 2.7780                12.1384
 Red. Mass:       1.9333                 2.5478                 7.5450
 IR Intens:        4.130                 15.560                 26.100
 Frequency:      3146.19                3173.64                3196.98
 Force Cnst:      6.3537                 6.4875                 6.5703
 Red. Mass:       1.0894                 1.0932                 1.0911
 IR Intens:       29.658                 21.825                 24.109
 Frequency:      3216.85                3232.78                3264.64
 Force Cnst:      6.6730                 6.7220                 6.8917
 Red. Mass:       1.0945                 1.0917                 1.0975
 IR Intens:       12.090                 13.192                  5.317

 STANDARD THERMODYNAMIC QUANTITIES AT   298.15 K  AND     1.00 ATM

   This Molecule has  1 Imaginary Frequencies
   Zero point vibrational energy:       63.473 kcal/mol

   Atom    1 Element C  Has Mass   12.00000
   Atom    2 Element C  Has Mass   12.00000
   Atom    3 Element C  Has Mass   12.00000
   Atom    4 Element C  Has Mass   12.00000
   Atom    5 Element C  Has Mass   12.00000
   Atom    6 Element N  Has Mass   14.00307
   Atom    7 Element H  Has Mass    1.00783
   Atom    8 Element H  Has Mass    1.00783
   Atom    9 Element H  Has Mass    1.00783
   Atom   10 Element H  Has Mass    1.00783
   Atom   11 Element H  Has Mass    1.00783
   Atom   12 Element C  Has Mass   12.00000
   Atom   13 Element H  Has Mass    1.00783
   Molecular Mass:    92.050050 amu
   Principal axes and moments of inertia in amu*Bohr^2:
                             1           2           3
    Eigenvalues --      361.93097   455.36492   600.07410
          X               0.76186    -0.59482     0.25643
          Y               0.55031     0.80320     0.22811
          Z              -0.34165    -0.03267     0.93926
   Rotational Symmetry Number is   1
   The Molecule is an Asymmetric Top
   Translational Enthalpy:        0.889 kcal/mol
   Rotational Enthalpy:           0.889 kcal/mol
   Vibrational Enthalpy:         64.751 kcal/mol
   gas constant (RT):             0.592 kcal/mol
   Translational Entropy:        39.471  cal/mol.K
   Rotational Entropy:           26.094  cal/mol.K
   Vibrational Entropy:           5.942  cal/mol.K

   Total Enthalpy:               67.121 kcal/mol
   Total Entropy:                71.507  cal/mol.K

 Total job time:  256.37s(wall), 255.08s(cpu)
        *  Thank you very much for using Q-Chem.  Have a nice day.  *
