 Q-Chem 5.0, Q-Chem, Inc., Pleasanton, CA (2017)
 Q-Chem 5.0.2 for Intel X86 EM64T Linux

User input:
--------------------------------------------------------------
$molecule
0 2
C        1.5953634426    0.3477174267    0.4386172245
C        1.2099226352   -0.9556867766    0.1860617932
C       -0.0918997649   -1.4408740635   -0.1953800545
C       -1.3486149852    0.7292625838   -0.2462227673
C       -0.3744798668    1.6453504102    0.1029430103
N        0.9379269961    1.5301650247    0.4155429285
H        2.6452269771    0.4696487451    0.7144154812
H        1.9899443681   -1.7059729163    0.2906697537
H       -0.1716686725   -2.5157835074   -0.3450325069
H       -2.3347673097    1.1432683327   -0.4425845824
H       -0.7130837002    2.6830591646    0.1399434110
C       -1.2197927979   -0.6992142018   -0.3849399394
H       -2.1240773219   -1.2309402222   -0.6740337519
$end

$rem
method                b3lyp
basis                 6-31g(d)
unrestricted          true
symmetry              off
sym_ignore            true
incdft                false
incfock               0
scf_convergence       8
thresh                14
jobtype               opt
scf_guess             read
scf_algorithm         diis
max_scf_cycles        100
geom_opt_tol_gradient 600
geom_opt_tol_displacement 2400
geom_opt_tol_energy   200
geom_opt_max_cycles   100
$end

--------------------------------------------------------------

    2    -286.9243498978      9.44E-10 Convergence criterion met
 Total energy in the final basis set = -286.92434990

             Standard Nuclear Orientation (Angstroms)
    I     Atom           X                Y                Z
 ----------------------------------------------------------------
    1      C       1.5953155496     0.3477177795     0.4385640753
    2      C       1.2097611176    -0.9556693691     0.1859891990
    3      C      -0.0919509526    -1.4409605500    -0.1954368234
    4      C      -1.3483283787     0.7293698579    -0.2472354634
    5      C      -0.3743724391     1.6451857148     0.1025696355
    6      N       0.9378288038     1.5303270601     0.4157697953
    7      H       2.6451874724     0.4694992997     0.7143865479
    8      H       1.9900469550    -1.7057417101     0.2903215260
    9      H      -0.1720895274    -2.5159998530    -0.3441110610
   10      H      -2.3346214820     1.1434292783    -0.4425944428
   11      H      -0.7135512296     2.6826988382     0.1409379000
   12      C      -1.2193138397    -0.6989513690    -0.3857749158
   13      H      -2.1239120493    -1.2309049772    -0.6733859726
 ----------------------------------------------------------------

   13    -286.9243504555      1.87E-09 Convergence criterion met
 Total energy in the final basis set = -286.92435046
 Final energy is   -286.924350455531
 **  OPTIMIZATION CONVERGED  **

                    Orbital Energies (a.u.)
 --------------------------------------------------------------

 Alpha MOs
 -- Occupied --
-14.322 -10.232 -10.232 -10.212 -10.211 -10.201 -10.200  -0.922
 -0.818  -0.784  -0.693  -0.667  -0.551  -0.537  -0.518  -0.449
 -0.439  -0.414  -0.394  -0.386  -0.349  -0.322  -0.299  -0.251
 -0.161

 Beta MOs
 -- Occupied --
-14.314 -10.233 -10.233 -10.210 -10.210 -10.196 -10.196  -0.911
 -0.809  -0.777  -0.681  -0.665  -0.546  -0.535  -0.514  -0.447
 -0.438  -0.411  -0.383  -0.373  -0.348  -0.295  -0.276  -0.241

          Ground-State Mulliken Net Atomic Charges

     Atom                 Charge (a.u.)    Spin (a.u.)
  --------------------------------------------------------
      1 C                     0.035600      -0.113521
      2 C                    -0.131529       0.348508
      3 C                    -0.111222       0.091824
      4 C                    -0.131208       0.345381
      5 C                     0.035393      -0.111647
      6 N                    -0.423397       0.386914
      7 H                     0.142648       0.003446
      8 H                     0.134346      -0.018403
      9 H                     0.141949      -0.006546
     10 H                     0.134346      -0.018259
     11 H                     0.142616       0.003354
     12 C                    -0.111504       0.095678
     13 H                     0.141962      -0.006728
  --------------------------------------------------------
  Sum of atomic charges =     0.000000

                    Cartesian Multipole Moments
 -----------------------------------------------------------------
    Charge (ESU x 10^10)
                 0.0000
    Dipole Moment (Debye)
         X      -1.1415      Y      -1.8638      Z      -0.5062
       Tot       2.2434
    Quadrupole Moments (Debye-Ang)
        XX     -36.8924     XY      -3.6619     YY     -39.9741
        XZ       1.1696     YZ      -0.5076     ZZ     -43.1307

 Total job time:  32.70s(wall), 56.43s(cpu)
        *  Thank you very much for using Q-Chem.  Have a nice day.  *
