 Q-Chem 5.0, Q-Chem, Inc., Pleasanton, CA (2017)
 Q-Chem 5.0.2 for Intel X86 EM64T Linux

User input:
--------------------------------------------------------------
$molecule
0 2
C        1.4590727568    0.8320084931   -0.2138011157
C        0.2495064295   -1.4019177979   -0.3183714406
C       -1.0125901323   -1.0486075364    0.0633252545
C       -1.4714426484    0.2703698080    0.4188854643
C       -0.7482559236    1.4503701221    0.4515044901
N        0.5451336609    1.7504915536    0.1825522642
H        2.4413332823    1.2773898842   -0.3788855924
H        0.4234767287   -2.4495068089   -0.5534868658
H       -1.7588205901   -1.8387162351    0.1066704063
H       -2.5188970166    0.3563580719    0.6965546020
H       -1.3182673966    2.3304766482    0.7532831342
C        1.3904792442   -0.5308395084   -0.4453777349
H        2.3192716050   -0.9978766949   -0.7628528659
$end

$rem
method                b3lyp
basis                 6-31+g(d,p)
unrestricted          true
symmetry              off
sym_ignore            true
incdft                false
incfock               0
scf_convergence       8
thresh                14
jobtype               sp
scf_guess             core
scf_guess_mix         5
scf_algorithm         diis
max_scf_cycles        100
$end

--------------------------------------------------------------

             Standard Nuclear Orientation (Angstroms)
    I     Atom           X                Y                Z
 ----------------------------------------------------------------
    1      C       1.4590727568     0.8320084931    -0.2138011157
    2      C       0.2495064295    -1.4019177979    -0.3183714406
    3      C      -1.0125901323    -1.0486075364     0.0633252545
    4      C      -1.4714426484     0.2703698080     0.4188854643
    5      C      -0.7482559236     1.4503701221     0.4515044901
    6      N       0.5451336609     1.7504915536     0.1825522642
    7      H       2.4413332823     1.2773898842    -0.3788855924
    8      H       0.4234767287    -2.4495068089    -0.5534868658
    9      H      -1.7588205901    -1.8387162351     0.1066704063
   10      H      -2.5188970166     0.3563580719     0.6965546020
   11      H      -1.3182673966     2.3304766482     0.7532831342
   12      C       1.3904792442    -0.5308395084    -0.4453777349
   13      H       2.3192716050    -0.9978766949    -0.7628528659
 ----------------------------------------------------------------

   23    -286.9462030877      1.58E-09 Convergence criterion met
 Total energy in the final basis set = -286.94620309

                    Orbital Energies (a.u.)
 --------------------------------------------------------------

 Alpha MOs
 -- Occupied --
-14.337 -10.243 -10.243 -10.223 -10.222 -10.212 -10.212  -0.934
 -0.829  -0.795  -0.703  -0.678  -0.562  -0.547  -0.527  -0.458
 -0.449  -0.423  -0.405  -0.395  -0.359  -0.333  -0.310  -0.263
 -0.174

 Beta MOs
 -- Occupied --
-14.329 -10.245 -10.245 -10.222 -10.221 -10.208 -10.208  -0.923
 -0.820  -0.788  -0.692  -0.676  -0.557  -0.544  -0.524  -0.456
 -0.448  -0.420  -0.392  -0.384  -0.357  -0.307  -0.287  -0.254

          Ground-State Mulliken Net Atomic Charges

     Atom                 Charge (a.u.)    Spin (a.u.)
  --------------------------------------------------------
      1 C                    -0.235218      -0.113854
      2 C                    -0.165543       0.079747
      3 C                    -0.164275       0.077433
      4 C                     0.100282       0.371189
      5 C                    -0.234480      -0.114956
      6 N                    -0.176394       0.375373
      7 H                     0.126985       0.003267
      8 H                     0.132743      -0.006806
      9 H                     0.132719      -0.006710
     10 H                     0.127414      -0.018714
     11 H                     0.127020       0.003317
     12 C                     0.101364       0.369349
     13 H                     0.127384      -0.018635
  --------------------------------------------------------
  Sum of atomic charges =     0.000000

                    Cartesian Multipole Moments
 -----------------------------------------------------------------
    Charge (ESU x 10^10)
                 0.0000
    Dipole Moment (Debye)
         X      -0.7120      Y      -2.2826      Z      -0.2385
       Tot       2.4030
    Quadrupole Moments (Debye-Ang)
        XX     -36.4476     XY      -2.1065     YY     -43.4948
        XZ      -2.5650     YZ       0.8288     ZZ     -44.3680

 Total job time:  64.88s(wall), 115.13s(cpu)
        *  Thank you very much for using Q-Chem.  Have a nice day.  *
