 Q-Chem 5.0, Q-Chem, Inc., Pleasanton, CA (2017)
 Q-Chem 5.0.2 for Intel X86 EM64T Linux

User input:
--------------------------------------------------------------
$molecule
0 2
C        1.3903493882    0.0814682049    0.3758648818
C        0.4737582429   -1.0392664178   -0.0968126950
C       -0.9551984259   -0.9984758147    0.2927672981
C       -1.5301987174    0.2624326007    0.4077373892
C       -0.7285230016    1.3646594294    0.1545045873
N        0.6562574432    1.2314302915   -0.2016231060
H        2.3337166659    0.1346278017    0.9008095744
H        0.9394358433   -2.0196644457   -0.1997041251
H       -1.5059102586   -1.9166459800    0.4655425598
H       -2.5738416823    0.3934902827    0.6790054032
H       -1.0857532281    2.3879526240    0.1850166851
C        1.0172947116    0.0483537604   -1.0168851368
H        1.5686130190    0.0696376630   -1.9462233158
$end

$rem
method                b3lyp
basis                 6-31+g(d,p)
unrestricted          true
symmetry              off
sym_ignore            true
incdft                false
incfock               0
scf_convergence       8
thresh                14
jobtype               sp
scf_guess             core
scf_guess_mix         5
scf_algorithm         diis
max_scf_cycles        100
$end

--------------------------------------------------------------

             Standard Nuclear Orientation (Angstroms)
    I     Atom           X                Y                Z
 ----------------------------------------------------------------
    1      C       1.3903493882     0.0814682049     0.3758648818
    2      C       0.4737582429    -1.0392664178    -0.0968126950
    3      C      -0.9551984259    -0.9984758147     0.2927672981
    4      C      -1.5301987174     0.2624326007     0.4077373892
    5      C      -0.7285230016     1.3646594294     0.1545045873
    6      N       0.6562574432     1.2314302915    -0.2016231060
    7      H       2.3337166659     0.1346278017     0.9008095744
    8      H       0.9394358433    -2.0196644457    -0.1997041251
    9      H      -1.5059102586    -1.9166459800     0.4655425598
   10      H      -2.5738416823     0.3934902827     0.6790054032
   11      H      -1.0857532281     2.3879526240     0.1850166851
   12      C       1.0172947116     0.0483537604    -1.0168851368
   13      H       1.5686130190     0.0696376630    -1.9462233158
 ----------------------------------------------------------------

   20    -286.8501367355      6.22E-09 Convergence criterion met
 Total energy in the final basis set = -286.85013674

                    Orbital Energies (a.u.)
 --------------------------------------------------------------

 Alpha MOs
 -- Occupied --
-14.359 -10.239 -10.238 -10.227 -10.220 -10.203 -10.192  -1.015
 -0.811  -0.799  -0.648  -0.638  -0.603  -0.548  -0.493  -0.474
 -0.471  -0.406  -0.400  -0.388  -0.367  -0.293  -0.284  -0.252
 -0.183

 Beta MOs
 -- Occupied --
-14.359 -10.237 -10.237 -10.228 -10.212 -10.195 -10.194  -1.012
 -0.802  -0.791  -0.638  -0.631  -0.599  -0.545  -0.491  -0.469
 -0.466  -0.402  -0.388  -0.386  -0.353  -0.291  -0.269  -0.250

          Ground-State Mulliken Net Atomic Charges

     Atom                 Charge (a.u.)    Spin (a.u.)
  --------------------------------------------------------
      1 C                    -0.084025       0.071898
      2 C                    -0.088099      -0.070613
      3 C                    -0.150882       0.680169
      4 C                     0.115548      -0.302350
      5 C                    -0.242037       0.644676
      6 N                    -0.274463      -0.039380
      7 H                     0.143221      -0.002924
      8 H                     0.132030       0.001314
      9 H                     0.127091      -0.032476
     10 H                     0.126408       0.009378
     11 H                     0.131587      -0.031952
     12 C                    -0.079538       0.075307
     13 H                     0.143159      -0.003047
  --------------------------------------------------------
  Sum of atomic charges =    -0.000000

                    Cartesian Multipole Moments
 -----------------------------------------------------------------
    Charge (ESU x 10^10)
                -0.0000
    Dipole Moment (Debye)
         X       0.2439      Y      -1.7007      Z      -0.0589
       Tot       1.7191
    Quadrupole Moments (Debye-Ang)
        XX     -37.8598     XY      -2.8924     YY     -41.7591
        XZ      -1.1540     YZ       0.6393     ZZ     -42.3316

 Total job time:  63.97s(wall), 104.05s(cpu)
        *  Thank you very much for using Q-Chem.  Have a nice day.  *
