 Q-Chem 5.0, Q-Chem, Inc., Pleasanton, CA (2017)
 Q-Chem 5.0.2 for Intel X86 EM64T Linux

User input:
--------------------------------------------------------------
$molecule
0 2
C        1.4290409253    0.8425477252   -0.3246602406
C        0.2764252582   -1.4166417549   -0.2009983396
C       -0.9825037337   -1.0610192085    0.1814165965
C       -1.4662441652    0.2729491519    0.4324253416
C       -0.7712537347    1.4643933569    0.3440875518
N        0.5057467515    1.7716834584    0.0154935518
H        2.3963098658    1.2941117913   -0.5561172666
H        0.4716942959   -2.4770649763   -0.3478083011
H       -1.7079322776   -1.8610482251    0.3148013813
H       -2.5088850571    0.3578922540    0.7291584482
H       -1.3561086328    2.3547969810    0.5854078242
C        1.3911211359   -0.5349034973   -0.4356078185
H        2.3225893691   -1.0076970562   -0.7375987295
****
C        1.2969194027   -0.2268038259    0.0036942257
C        0.3292090009   -1.3240394185    0.2277080706
C       -0.9950402145   -1.0798868525    0.3090785989
C       -1.5135242948    0.2810738631    0.3173389562
C       -0.6956382713    1.3359663353    0.1452551787
N        0.6854041423    1.1862498578   -0.1351236651
H        2.2194177859   -0.2548285212    0.5889823118
H        0.7255345344   -2.3282296796    0.3610373333
H       -1.6912650551   -1.8990463278    0.4685390324
H       -2.5586747706    0.4479039054    0.5623730734
H       -1.0179251019    2.3635020456    0.2902173331
C        1.2238779015    0.5378451929   -1.2474390585
H        1.9917049405    0.9602934252   -1.8916613906
$end

$rem
method                b3lyp
basis                 6-31g(d)
unrestricted          true
symmetry              off
sym_ignore            true
incdft                false
incfock               0
scf_convergence       8
thresh                14
jobtype               fsm
scf_guess             core
scf_guess_mix         5
scf_algorithm         diis
max_scf_cycles        100
fsm_nnode             21
fsm_ngrad             6
fsm_mode              2
fsm_opt_mode          2
$end

--------------------------------------------------------------

   23    -286.9243186469      3.26E-09 Convergence criterion met
 Total energy in the final basis set = -286.92431865
   23    -286.8404848659      5.14E-09 Convergence criterion met
 Total energy in the final basis set = -286.84048487
   23    -286.9217312371      5.37E-09 Convergence criterion met
 Total energy in the final basis set = -286.92173124
   23    -286.9217244220      8.40E-09 Convergence criterion met
 Total energy in the final basis set = -286.92172442
   23    -286.8347550333      5.55E-09 Convergence criterion met
 Total energy in the final basis set = -286.83475503
   23    -286.8364093168      3.47E-09 Convergence criterion met
 Total energy in the final basis set = -286.83640932
   24    -286.9150603128      5.04E-09 Convergence criterion met
 Total energy in the final basis set = -286.91506031
   23    -286.9179088662      6.37E-09 Convergence criterion met
 Total energy in the final basis set = -286.78736947
   23    -286.7871804902      7.31E-09 Convergence criterion met
 Total energy in the final basis set = -286.78718049
   23    -286.7872991114      8.28E-09 Convergence criterion met
 Total energy in the final basis set = -286.78729911
   23    -286.7872612809      6.73E-09 Convergence criterion met
 Total energy in the final basis set = -286.78726128
   23    -286.7872458380      8.40E-09 Convergence criterion met
 Total energy in the final basis set = -286.78724584
   23    -286.7873270164      6.47E-09 Convergence criterion met
 Total energy in the final basis set = -286.78732702
   23    -286.7872231337      8.42E-09 Convergence criterion met
 Total energy in the final basis set = -286.78722313
   23    -286.7873575111      6.60E-09 Convergence criterion met
 Total energy in the final basis set = -286.78735751

                    Orbital Energies (a.u.)
 --------------------------------------------------------------

 Alpha MOs
 -- Occupied --
-14.361 -10.234 -10.227 -10.220 -10.213 -10.196 -10.183  -0.963
 -0.810  -0.794  -0.652  -0.644  -0.561  -0.534  -0.485  -0.471
 -0.466  -0.403  -0.384  -0.377  -0.362  -0.284  -0.259  -0.249
 -0.155

 Beta MOs
 -- Occupied --
-14.363 -10.231 -10.227 -10.214 -10.206 -10.190 -10.185  -0.960
 -0.802  -0.788  -0.645  -0.637  -0.550  -0.529  -0.483  -0.466
 -0.460  -0.400  -0.377  -0.373  -0.353  -0.274  -0.246  -0.238

          Ground-State Mulliken Net Atomic Charges

     Atom                 Charge (a.u.)    Spin (a.u.)
  --------------------------------------------------------
      1 C                     0.011945       0.140646
      2 C                    -0.206040      -0.072898
      3 C                    -0.084561       0.428170
      4 C                    -0.127083      -0.194227
      5 C                     0.021624       0.450109
      6 N                    -0.395412      -0.128081
      7 H                     0.157954      -0.006637
      8 H                     0.148328       0.016120
      9 H                     0.135405      -0.020664
     10 H                     0.130014       0.009016
     11 H                     0.145603      -0.026685
     12 C                    -0.096724       0.423519
     13 H                     0.158946      -0.018387
  --------------------------------------------------------
  Sum of atomic charges =     0.000000

                    Cartesian Multipole Moments
 -----------------------------------------------------------------
    Charge (ESU x 10^10)
                 0.0000
    Dipole Moment (Debye)
         X       0.2347      Y      -1.5794      Z       0.2468
       Tot       1.6157
    Quadrupole Moments (Debye-Ang)
        XX     -35.6458     XY      -2.2104     YY     -39.9517
        XZ      -1.6137     YZ       1.6614     ZZ     -42.5527

             Standard Nuclear Orientation (Angstroms)
    I     Atom           X                Y                Z
 ----------------------------------------------------------------
    1      C       1.3975604365     0.2893366516     0.2738343338
    2      C       0.4497343520    -1.1037127110    -0.1254540174
    3      C      -0.9499061730    -0.9863810748     0.2817100735
    4      C      -1.5288917035     0.2579987109     0.3916347753
    5      C      -0.7672743896     1.4013831032     0.1600493258
    6      N       0.5816962639     1.3662840041    -0.1384866300
    7      H       2.3767518953     0.4704674416     0.7208730377
    8      H       0.8651829410    -2.1192075306    -0.0646654809
    9      H      -1.5277251015    -1.8969516754     0.4555089363
   10      H      -2.5726182870     0.3678633672     0.6749331096
   11      H      -1.2027457204     2.3975895783     0.2075505739
   12      C       1.0794856685    -0.1482905700    -1.0401948189
   13      H       1.7636891343    -0.3185973487    -1.8661464787
 ----------------------------------------------------------------

 Total job time:  3724.78s(wall), 4762.09s(cpu)
        *  Thank you very much for using Q-Chem.  Have a nice day.  *
