 Q-Chem 5.0, Q-Chem, Inc., Pleasanton, CA (2017)
 Q-Chem 5.0.2 for Intel X86 EM64T Linux

User input:
--------------------------------------------------------------
$molecule
0 2
C        1.3719436764    0.1673485149    0.2934192663
C        0.4830535171   -1.0466054607   -0.0817588098
C       -0.9421356918   -0.9828063532    0.3265233209
C       -1.5253823204    0.2520937070    0.4050403958
C       -0.7248474755    1.3875192505    0.1294994651
N        0.6276356574    1.3438634864   -0.0501085152
H        2.2783272381    0.2035167217    0.8900294873
H        0.9694321922   -2.0223439636   -0.0183033866
H       -1.4732624941   -1.8987010564    0.5650071969
H       -2.5774516516    0.3786488797    0.6422634366
H       -1.1683339442    2.3646047960   -0.0414740147
C        1.1001281186   -0.1321214816   -1.0765998445
H        1.5458324944   -0.0372350944   -2.0523912582
$end

$rem
method                b3lyp
basis                 6-31+g(d,p)
unrestricted          true
symmetry              off
sym_ignore            true
incdft                false
incfock               0
scf_convergence       8
thresh                14
jobtype               rpath
scf_guess             core
scf_guess_mix         5
scf_algorithm         diis
max_scf_cycles        100
rpath_direction       1
rpath_tol_displacement 1000
rpath_max_cycles      50
geom_opt_max_cycles   300
geom_opt_hessian      read
$end

--------------------------------------------------------------

   22    -286.8343100478      2.80E-09 Convergence criterion met
 Total energy in the final basis set = -286.83431005
   21    -286.8368596228      7.78E-09 Convergence criterion met
 Total energy in the final basis set = -286.83685962
   22    -286.8368156678      4.22E-09 Convergence criterion met
 Total energy in the final basis set = -286.83681567
   21    -286.8368613319      7.89E-09 Convergence criterion met
 Total energy in the final basis set = -286.83686133
   22    -286.8431443985      7.05E-09 Convergence criterion met
 Total energy in the final basis set = -286.84314440
   22    -286.8430986959      6.76E-09 Convergence criterion met
 Total energy in the final basis set = -286.84309870
   22    -286.8431640607      7.68E-09 Convergence criterion met
 Total energy in the final basis set = -286.84316406
   22    -286.8503229381      7.99E-09 Convergence criterion met
 Total energy in the final basis set = -286.84967155
   20    -286.8501232203      6.03E-09 Convergence criterion met
 Total energy in the final basis set = -286.85012322
   20    -286.8500982801      6.67E-09 Convergence criterion met
 Total energy in the final basis set = -286.85009828
   20    -286.8501295754      6.22E-09 Convergence criterion met
 Total energy in the final basis set = -286.85012958
   21    -286.8481324337      3.96E-09 Convergence criterion met
 Total energy in the final basis set = -286.84813243
   20    -286.8501327839      6.29E-09 Convergence criterion met
 Total energy in the final basis set = -286.85013278
   20    -286.8501323669      6.20E-09 Convergence criterion met
 Total energy in the final basis set = -286.85013237
   20    -286.8501337800      6.25E-09 Convergence criterion met
 Total energy in the final basis set = -286.85013378

                    Orbital Energies (a.u.)
 --------------------------------------------------------------

 Alpha MOs
 -- Occupied --
-14.359 -10.239 -10.238 -10.227 -10.220 -10.203 -10.192  -1.015
 -0.811  -0.799  -0.648  -0.638  -0.603  -0.548  -0.493  -0.474
 -0.471  -0.406  -0.400  -0.388  -0.367  -0.293  -0.284  -0.252
 -0.183

 Beta MOs
 -- Occupied --
-14.359 -10.237 -10.237 -10.228 -10.212 -10.195 -10.194  -1.012
 -0.802  -0.791  -0.638  -0.631  -0.599  -0.545  -0.491  -0.469
 -0.466  -0.402  -0.388  -0.386  -0.353  -0.291  -0.269  -0.250

          Ground-State Mulliken Net Atomic Charges

     Atom                 Charge (a.u.)    Spin (a.u.)
  --------------------------------------------------------
      1 C                    -0.083532       0.071964
      2 C                    -0.087894      -0.070700
      3 C                    -0.151290       0.680256
      4 C                     0.115815      -0.302438
      5 C                    -0.241929       0.644817
      6 N                    -0.274739      -0.039301
      7 H                     0.143197      -0.002924
      8 H                     0.131973       0.001314
      9 H                     0.127111      -0.032477
     10 H                     0.126396       0.009379
     11 H                     0.131618      -0.031955
     12 C                    -0.079859       0.075101
     13 H                     0.143134      -0.003036
  --------------------------------------------------------
  Sum of atomic charges =    -0.000000

                    Cartesian Multipole Moments
 -----------------------------------------------------------------
    Charge (ESU x 10^10)
                -0.0000
    Dipole Moment (Debye)
         X       0.2706      Y      -1.6958      Z       0.0469
       Tot       1.7179
    Quadrupole Moments (Debye-Ang)
        XX     -37.7626     XY      -2.8885     YY     -41.7698
        XZ      -0.9909     YZ       0.5940     ZZ     -42.4112

             Standard Nuclear Orientation (Angstroms)
    I     Atom           X                Y                Z
 ----------------------------------------------------------------
    1      C       1.3719436764     0.1673485149     0.2934192663
    2      C       0.4830535171    -1.0466054607    -0.0817588098
    3      C      -0.9421356918    -0.9828063532     0.3265233209
    4      C      -1.5253823204     0.2520937070     0.4050403958
    5      C      -0.7248474755     1.3875192505     0.1294994651
    6      N       0.6276356574     1.3438634864    -0.0501085152
    7      H       2.2783272381     0.2035167217     0.8900294873
    8      H       0.9694321922    -2.0223439636    -0.0183033866
    9      H      -1.4732624941    -1.8987010564     0.5650071969
   10      H      -2.5774516516     0.3786488797     0.6422634366
   11      H      -1.1683339442     2.3646047960    -0.0414740147
   12      C       1.1001281186    -0.1321214816    -1.0765998445
   13      H       1.5458324944    -0.0372350944    -2.0523912582
 ----------------------------------------------------------------

 Total job time:  13765.44s(wall), 29249.83s(cpu)
        *  Thank you very much for using Q-Chem.  Have a nice day.  *
