 Q-Chem 5.0, Q-Chem, Inc., Pleasanton, CA (2017)
 Q-Chem 5.0.2 for Intel X86 EM64T Linux

User input:
--------------------------------------------------------------
$molecule
0 2
C        1.4693264913    0.7499762048    0.0421642565
C        0.2969521617   -1.3690105628   -0.2916835815
C       -0.9079176123   -1.0520036093    0.2982717789
C       -1.4633999064    0.2740895696    0.3004028680
C       -0.7513613842    1.4414716685    0.2951634910
N        0.6029853910    1.5700849278    0.5304858102
H        2.5036297248    0.8825759866    0.3794345876
H        0.5811191067   -2.4228584001   -0.3504463516
H       -1.5306794998   -1.8625512841    0.6633969273
H       -2.5502166698    0.3590953896    0.3274473784
H       -1.2817131121    2.3915303046    0.2602229699
C        1.1936296321   -0.3980463486   -0.8213711433
H        1.8025849940   -0.5865718961   -1.7023422535
$end

$rem
method                b3lyp
basis                 6-31+g(d,p)
unrestricted          true
symmetry              off
sym_ignore            true
incdft                false
incfock               0
scf_convergence       8
thresh                14
jobtype               opt
scf_guess             read
scf_algorithm         diis
max_scf_cycles        100
geom_opt_max_cycles   300
$end

--------------------------------------------------------------

   20    -286.9245441610      5.87E-09 Convergence criterion met
 Total energy in the final basis set = -286.92454416
   15    -286.9292680653      5.01E-09 Convergence criterion met
 Total energy in the final basis set = -286.92926807
   15    -286.9334239554      4.92E-09 Convergence criterion met
 Total energy in the final basis set = -286.93342396
   15    -286.9369721600      8.86E-09 Convergence criterion met
 Total energy in the final basis set = -286.93697216
   16    -286.9397628974      3.69E-09 Convergence criterion met
 Total energy in the final basis set = -286.93976290
   16    -286.9417724386      4.25E-09 Convergence criterion met
 Total energy in the final basis set = -286.94177244
   16    -286.9431428502      3.92E-09 Convergence criterion met
 Total energy in the final basis set = -286.94314285
   16    -286.9441126221      4.97E-09 Convergence criterion met
   14    -286.9461105962      6.47E-09 Convergence criterion met
 Total energy in the final basis set = -286.94611060
   14    -286.9461625266      6.11E-09 Convergence criterion met
 Total energy in the final basis set = -286.94616253
   13    -286.9461817938      8.67E-09 Convergence criterion met
 Total energy in the final basis set = -286.94618179
   14    -286.9461976361      5.34E-09 Convergence criterion met
 Total energy in the final basis set = -286.94619764
   13    -286.9462014342      4.25E-09 Convergence criterion met
 Total energy in the final basis set = -286.94620143
   13    -286.9462026443      4.07E-09 Convergence criterion met
 Total energy in the final basis set = -286.94620264

             Standard Nuclear Orientation (Angstroms)
    I     Atom           X                Y                Z
 ----------------------------------------------------------------
    1      C       1.4563757812     0.8302994124    -0.2190975205
    2      C       0.2468094539    -1.4036268786    -0.3236678454
    3      C      -1.0152871079    -1.0503166171     0.0580288497
    4      C      -1.4741396240     0.2686607273     0.4135890595
    5      C      -0.7509528992     1.4486610414     0.4462080853
    6      N       0.5424366853     1.7487824729     0.1772558594
    7      H       2.4386363067     1.2756808035    -0.3841819972
    8      H       0.4207797531    -2.4512158896    -0.5587832706
    9      H      -1.7615175657    -1.8404253158     0.1013740015
   10      H      -2.5215939922     0.3546489912     0.6912581972
   11      H      -1.3209643722     2.3287675675     0.7479867294
   12      C       1.3877822686    -0.5325485891    -0.4506741397
   13      H       2.3165746294    -0.9995857756    -0.7681492707
 ----------------------------------------------------------------

   12    -286.9462030877      2.20E-09 Convergence criterion met
 Total energy in the final basis set = -286.94620309
 Final energy is   -286.946203087679
 **  OPTIMIZATION CONVERGED  **

                    Orbital Energies (a.u.)
 --------------------------------------------------------------

 Alpha MOs
 -- Occupied --
-14.337 -10.243 -10.243 -10.223 -10.222 -10.212 -10.212  -0.934
 -0.829  -0.795  -0.703  -0.678  -0.562  -0.547  -0.527  -0.458
 -0.449  -0.423  -0.405  -0.395  -0.359  -0.333  -0.310  -0.263
 -0.174

 Beta MOs
 -- Occupied --
-14.329 -10.245 -10.245 -10.222 -10.221 -10.208 -10.208  -0.923
 -0.820  -0.788  -0.692  -0.676  -0.557  -0.544  -0.524  -0.456
 -0.448  -0.420  -0.392  -0.384  -0.357  -0.307  -0.287  -0.254

          Ground-State Mulliken Net Atomic Charges

     Atom                 Charge (a.u.)    Spin (a.u.)
  --------------------------------------------------------
      1 C                    -0.235218      -0.113853
      2 C                    -0.165542       0.079745
      3 C                    -0.164275       0.077433
      4 C                     0.100282       0.371189
      5 C                    -0.234480      -0.114955
      6 N                    -0.176394       0.375372
      7 H                     0.126985       0.003267
      8 H                     0.132743      -0.006805
      9 H                     0.132719      -0.006710
     10 H                     0.127414      -0.018714
     11 H                     0.127020       0.003317
     12 C                     0.101364       0.369350
     13 H                     0.127384      -0.018636
  --------------------------------------------------------
  Sum of atomic charges =     0.000000

                    Cartesian Multipole Moments
 -----------------------------------------------------------------
    Charge (ESU x 10^10)
                 0.0000
    Dipole Moment (Debye)
         X      -0.7120      Y      -2.2826      Z      -0.2385
       Tot       2.4030
    Quadrupole Moments (Debye-Ang)
        XX     -36.4437     XY      -2.0992     YY     -43.4870
        XZ      -2.5606     YZ       0.8413     ZZ     -44.3655

 Total job time:  811.42s(wall), 1654.51s(cpu)
        *  Thank you very much for using Q-Chem.  Have a nice day.  *
