 Q-Chem 5.0, Q-Chem, Inc., Pleasanton, CA (2017)
 Q-Chem 5.0.2 for Intel X86 EM64T Linux

User input:
--------------------------------------------------------------
$molecule
0 2
C        1.4287593682    0.8425195606   -0.3250872097
C        0.2766459415   -1.4163105594   -0.2011434153
C       -0.9821599900   -1.0609185183    0.1815044956
C       -1.4663085310    0.2730374794    0.4321864887
C       -0.7711985315    1.4644581620    0.3445855300
N        0.5055704975    1.7716839771    0.0152833887
H        2.3961927978    1.2938132753   -0.5562728852
H        0.4722278096   -2.4767490943   -0.3472949383
H       -1.7075845728   -1.8610258723    0.3144518885
H       -2.5090420399    0.3578883204    0.7286078105
H       -1.3559728150    2.3548527029    0.5861931606
C        1.3907341015   -0.5349550234   -0.4358252828
H        2.3221359647   -1.0082944096   -0.7371890318
$end

$rem
method                b3lyp
basis                 6-31g(d)
unrestricted          true
symmetry              off
sym_ignore            true
incdft                false
incfock               0
scf_convergence       8
thresh                14
jobtype               opt
scf_guess             core
scf_guess_mix         5
scf_algorithm         diis
max_scf_cycles        100
geom_opt_max_cycles   300
$end

--------------------------------------------------------------

   23    -286.9243179979      3.36E-09 Convergence criterion met
 Total energy in the final basis set = -286.92431800

             Standard Nuclear Orientation (Angstroms)
    I     Atom           X                Y                Z
 ----------------------------------------------------------------
    1      C       1.4290409253     0.8425477252    -0.3246602406
    2      C       0.2764252582    -1.4166417549    -0.2009983396
    3      C      -0.9825037337    -1.0610192085     0.1814165965
    4      C      -1.4662441652     0.2729491519     0.4324253416
    5      C      -0.7712537347     1.4643933569     0.3440875518
    6      N       0.5057467515     1.7716834584     0.0154935518
    7      H       2.3963098658     1.2941117913    -0.5561172666
    8      H       0.4716942959    -2.4770649763    -0.3478083011
    9      H      -1.7079322776    -1.8610482251     0.3148013813
   10      H      -2.5088850571     0.3578922540     0.7291584482
   11      H      -1.3561086328     2.3547969810     0.5854078242
   12      C       1.3911211359    -0.5349034973    -0.4356078185
   13      H       2.3225893691    -1.0076970562    -0.7375987295
 ----------------------------------------------------------------

   18    -286.9243186469      2.96E-09 Convergence criterion met
 Total energy in the final basis set = -286.92431865
 Final energy is   -286.924318646934
 **  OPTIMIZATION CONVERGED  **

                    Orbital Energies (a.u.)
 --------------------------------------------------------------

 Alpha MOs
 -- Occupied --
-14.322 -10.232 -10.232 -10.212 -10.211 -10.201 -10.200  -0.922
 -0.818  -0.784  -0.693  -0.667  -0.551  -0.537  -0.518  -0.449
 -0.439  -0.414  -0.394  -0.387  -0.349  -0.322  -0.299  -0.251
 -0.162

 Beta MOs
 -- Occupied --
-14.314 -10.233 -10.233 -10.210 -10.210 -10.196 -10.196  -0.911
 -0.809  -0.777  -0.681  -0.665  -0.546  -0.535  -0.514  -0.447
 -0.438  -0.411  -0.383  -0.373  -0.348  -0.295  -0.276  -0.241

          Ground-State Mulliken Net Atomic Charges

     Atom                 Charge (a.u.)    Spin (a.u.)
  --------------------------------------------------------
      1 C                     0.035856      -0.113378
      2 C                    -0.111013       0.092041
      3 C                    -0.111446       0.095443
      4 C                    -0.131421       0.345783
      5 C                     0.035276      -0.111877
      6 N                    -0.423383       0.386882
      7 H                     0.142592       0.003441
      8 H                     0.141942      -0.006555
      9 H                     0.141918      -0.006719
     10 H                     0.134408      -0.018279
     11 H                     0.142647       0.003365
     12 C                    -0.131725       0.348245
     13 H                     0.134349      -0.018393
  --------------------------------------------------------
  Sum of atomic charges =     0.000000

                    Cartesian Multipole Moments
 -----------------------------------------------------------------
    Charge (ESU x 10^10)
                 0.0000
    Dipole Moment (Debye)
         X      -0.6156      Y      -2.1571      Z      -0.0190
       Tot       2.2433
    Quadrupole Moments (Debye-Ang)
        XX     -35.5406     XY      -1.9265     YY     -41.8129
        XZ      -2.3531     YZ       0.6663     ZZ     -42.6459

 Total job time:  115.28s(wall), 124.84s(cpu)
        *  Thank you very much for using Q-Chem.  Have a nice day.  *
