 Q-Chem 5.0, Q-Chem, Inc., Pleasanton, CA (2017)
 Q-Chem 5.0.2 for Intel X86 EM64T Linux

User input:
--------------------------------------------------------------
$molecule
0 2
C        1.2967611605   -0.2269401889    0.0033222863
C        0.3287660656   -1.3240053687    0.2275612724
C       -0.9952974761   -1.0801445702    0.3086064903
C       -1.5134644741    0.2809671802    0.3171570669
C       -0.6953981492    1.3359388170    0.1459533020
N        0.6855496415    1.1859398741   -0.1349747111
H        2.2193460553   -0.2544735426    0.5883789516
H        0.7254461330   -2.3280163089    0.3613190951
H       -1.6912317156   -1.8992119366    0.4698305625
H       -2.5588308425    0.4478335472    0.5613985465
H       -1.0177712032    2.3635405689    0.2905282445
C        1.2240879752    0.5378306443   -1.2476140604
H        1.9920368296    0.9607412841   -1.8914670467
$end

$rem
method                b3lyp
basis                 6-31g(d)
unrestricted          true
symmetry              off
sym_ignore            true
incdft                false
incfock               0
scf_convergence       8
thresh                14
jobtype               opt
scf_guess             core
scf_guess_mix         5
scf_algorithm         diis
max_scf_cycles        100
geom_opt_max_cycles   300
$end

--------------------------------------------------------------

   23    -286.8404840432      5.10E-09 Convergence criterion met
 Total energy in the final basis set = -286.84048404

             Standard Nuclear Orientation (Angstroms)
    I     Atom           X                Y                Z
 ----------------------------------------------------------------
    1      C       1.2969194027    -0.2268038259     0.0036942257
    2      C       0.3292090009    -1.3240394185     0.2277080706
    3      C      -0.9950402145    -1.0798868525     0.3090785989
    4      C      -1.5135242948     0.2810738631     0.3173389562
    5      C      -0.6956382713     1.3359663353     0.1452551787
    6      N       0.6854041423     1.1862498578    -0.1351236651
    7      H       2.2194177859    -0.2548285212     0.5889823118
    8      H       0.7255345344    -2.3282296796     0.3610373333
    9      H      -1.6912650551    -1.8990463278     0.4685390324
   10      H      -2.5586747706     0.4479039054     0.5623730734
   11      H      -1.0179251019     2.3635020456     0.2902173331
   12      C       1.2238779015     0.5378451929    -1.2474390585
   13      H       1.9917049405     0.9602934252    -1.8916613906
 ----------------------------------------------------------------

   17    -286.8404848753      4.64E-09 Convergence criterion met
 Total energy in the final basis set = -286.84048488
 Final energy is   -286.840484875336
 **  OPTIMIZATION CONVERGED  **

                    Orbital Energies (a.u.)
 --------------------------------------------------------------

 Alpha MOs
 -- Occupied --
-14.358 -10.230 -10.222 -10.220 -10.195 -10.193 -10.189  -0.983
 -0.807  -0.773  -0.662  -0.637  -0.570  -0.520  -0.493  -0.477
 -0.451  -0.424  -0.389  -0.368  -0.354  -0.308  -0.277  -0.223
 -0.188

 Beta MOs
 -- Occupied --
-14.355 -10.230 -10.220 -10.209 -10.195 -10.193 -10.189  -0.974
 -0.805  -0.770  -0.654  -0.636  -0.556  -0.515  -0.487  -0.474
 -0.442  -0.419  -0.384  -0.364  -0.351  -0.297  -0.270  -0.206

          Ground-State Mulliken Net Atomic Charges

     Atom                 Charge (a.u.)    Spin (a.u.)
  --------------------------------------------------------
      1 C                    -0.076092      -0.036747
      2 C                    -0.100427       0.029219
      3 C                    -0.134365      -0.010530
      4 C                    -0.123814       0.014835
      5 C                     0.023907       0.011046
      6 N                    -0.392164       0.120684
      7 H                     0.152258       0.003880
      8 H                     0.137756      -0.001594
      9 H                     0.133274       0.000599
     10 H                     0.133373       0.003098
     11 H                     0.148745      -0.000903
     12 C                    -0.055307       0.859794
     13 H                     0.152855       0.006618
  --------------------------------------------------------
  Sum of atomic charges =    -0.000000

                    Cartesian Multipole Moments
 -----------------------------------------------------------------
    Charge (ESU x 10^10)
                -0.0000
    Dipole Moment (Debye)
         X      -0.1563      Y      -0.6937      Z       0.3504
       Tot       0.7927
    Quadrupole Moments (Debye-Ang)
        XX     -36.4284     XY      -1.4264     YY     -38.7307
        XZ      -1.5855     YZ      -1.2398     ZZ     -42.5610

 Total job time:  104.68s(wall), 123.80s(cpu)
        *  Thank you very much for using Q-Chem.  Have a nice day.  *
