 Q-Chem 5.0, Q-Chem, Inc., Pleasanton, CA (2017)
 Q-Chem 5.0.2 for Intel X86 EM64T Linux

User input:
--------------------------------------------------------------
$molecule
0 2
C        1.3719436764    0.1673485149    0.2934192663
C        0.4830535171   -1.0466054607   -0.0817588098
C       -0.9421356918   -0.9828063532    0.3265233209
C       -1.5253823204    0.2520937070    0.4050403958
C       -0.7248474755    1.3875192505    0.1294994651
N        0.6276356574    1.3438634864   -0.0501085152
H        2.2783272381    0.2035167217    0.8900294873
H        0.9694321922   -2.0223439636   -0.0183033866
H       -1.4732624941   -1.8987010564    0.5650071969
H       -2.5774516516    0.3786488797    0.6422634366
H       -1.1683339442    2.3646047960   -0.0414740147
C        1.1001281186   -0.1321214816   -1.0765998445
H        1.5458324944   -0.0372350944   -2.0523912582
$end

$rem
method                b3lyp
basis                 6-31+g(d,p)
unrestricted          true
symmetry              off
sym_ignore            true
incdft                false
incfock               0
scf_convergence       8
thresh                14
jobtype               freq
scf_guess             read
scf_algorithm         diis
max_scf_cycles        100
$end

--------------------------------------------------------------

             Standard Nuclear Orientation (Angstroms)
    I     Atom           X                Y                Z
 ----------------------------------------------------------------
    1      C       1.3719436764     0.1673485149     0.2934192663
    2      C       0.4830535171    -1.0466054607    -0.0817588098
    3      C      -0.9421356918    -0.9828063532     0.3265233209
    4      C      -1.5253823204     0.2520937070     0.4050403958
    5      C      -0.7248474755     1.3875192505     0.1294994651
    6      N       0.6276356574     1.3438634864    -0.0501085152
    7      H       2.2783272381     0.2035167217     0.8900294873
    8      H       0.9694321922    -2.0223439636    -0.0183033866
    9      H      -1.4732624941    -1.8987010564     0.5650071969
   10      H      -2.5774516516     0.3786488797     0.6422634366
   11      H      -1.1683339442     2.3646047960    -0.0414740147
   12      C       1.1001281186    -0.1321214816    -1.0765998445
   13      H       1.5458324944    -0.0372350944    -2.0523912582
 ----------------------------------------------------------------

    2    -286.8343100478      7.40E-10 Convergence criterion met
 Total energy in the final basis set = -286.83431005

                    Orbital Energies (a.u.)
 --------------------------------------------------------------

 Alpha MOs
 -- Occupied --
-14.360 -10.243 -10.237 -10.228 -10.223 -10.205 -10.193  -0.982
 -0.831  -0.799  -0.656  -0.643  -0.594  -0.544  -0.494  -0.484
 -0.476  -0.409  -0.395  -0.377  -0.365  -0.314  -0.264  -0.255
 -0.175

 Beta MOs
 -- Occupied --
-14.363 -10.243 -10.230 -10.229 -10.216 -10.200 -10.195  -0.978
 -0.824  -0.793  -0.644  -0.640  -0.583  -0.539  -0.491  -0.481
 -0.470  -0.405  -0.392  -0.368  -0.356  -0.303  -0.257  -0.250

          Ground-State Mulliken Net Atomic Charges

     Atom                 Charge (a.u.)    Spin (a.u.)
  --------------------------------------------------------
      1 C                    -0.094233       0.005996
      2 C                    -0.049846      -0.069074
      3 C                    -0.194468       0.454407
      4 C                     0.176115      -0.232142
      5 C                    -0.283830       0.518361
      6 N                    -0.214991      -0.150580
      7 H                     0.138962       0.000970
      8 H                     0.140702       0.016319
      9 H                     0.127146      -0.021501
     10 H                     0.127151       0.010730
     11 H                     0.129313      -0.026750
     12 C                    -0.150497       0.515122
     13 H                     0.148476      -0.021855
  --------------------------------------------------------
  Sum of atomic charges =     0.000000

                    Cartesian Multipole Moments
 -----------------------------------------------------------------
    Charge (ESU x 10^10)
                -0.0000
    Dipole Moment (Debye)
         X       0.0991      Y      -1.8513      Z      -0.0339
       Tot       1.8543
    Quadrupole Moments (Debye-Ang)
        XX     -38.0283     XY      -3.1175     YY     -42.3947
        XZ      -0.9630     YZ      -0.0026     ZZ     -42.1117

 Frequency:      -719.09                 316.93                 335.11
 Force Cnst:      2.6526                 0.1704                 0.1573
 Red. Mass:       8.7068                 2.8798                 2.3768
 IR Intens:       36.538                  3.094                  4.755
 Frequency:       466.83                 526.63                 583.73
 Force Cnst:      0.1743                 0.5334                 0.7500
 Red. Mass:       1.3572                 3.2643                 3.7359
 IR Intens:       15.032                  5.308                  5.918
 Frequency:       614.31                 676.29                 730.42
 Force Cnst:      0.7351                 0.5577                 0.6298
 Red. Mass:       3.3060                 2.0697                 2.0034
 IR Intens:       10.351                 24.095                 46.423
 Frequency:       795.71                 823.27                 890.65
 Force Cnst:      0.5757                 0.5460                 1.9456
 Red. Mass:       1.5434                 1.3673                 4.1629
 IR Intens:        7.832                 10.847                  6.952
 Frequency:       923.25                 927.29                 975.43
 Force Cnst:      0.7383                 1.0535                 1.1069
 Red. Mass:       1.4701                 2.0795                 1.9745
 IR Intens:        0.976                  5.772                  8.379
 Frequency:      1008.81                1010.38                1050.75
 Force Cnst:      1.0671                 1.3230                 1.2710
 Red. Mass:       1.7796                 2.1995                 1.9538
 IR Intens:        5.704                  8.448                  1.298
 Frequency:      1113.48                1160.17                1193.16
 Force Cnst:      1.2356                 0.9574                 1.4035
 Red. Mass:       1.6915                 1.2073                 1.6733
 IR Intens:        2.534                  4.243                  8.222
 Frequency:      1253.31                1282.59                1384.43
 Force Cnst:      4.0163                 1.4734                 1.6353
 Red. Mass:       4.3397                 1.5202                 1.4481
 IR Intens:        8.277                  5.361                  1.620
 Frequency:      1419.51                1457.21                1565.20
 Force Cnst:      2.9920                 3.3498                 5.4729
 Red. Mass:       2.5202                 2.6775                 3.7916
 IR Intens:        8.525                  3.641                  3.971
 Frequency:      3110.43                3180.43                3183.09
 Force Cnst:      6.1911                 6.4877                 6.5131
 Red. Mass:       1.0861                 1.0886                 1.0910
 IR Intens:       18.406                 19.509                 10.771
 Frequency:      3194.73                3211.40                3300.93
 Force Cnst:      6.5473                 6.6707                 7.0638
 Red. Mass:       1.0888                 1.0978                 1.1003
 IR Intens:       18.325                 13.315                  5.458

 STANDARD THERMODYNAMIC QUANTITIES AT   298.15 K  AND     1.00 ATM

   This Molecule has  1 Imaginary Frequencies
   Zero point vibrational energy:       62.423 kcal/mol

   Atom    1 Element C  Has Mass   12.00000
   Atom    2 Element C  Has Mass   12.00000
   Atom    3 Element C  Has Mass   12.00000
   Atom    4 Element C  Has Mass   12.00000
   Atom    5 Element C  Has Mass   12.00000
   Atom    6 Element N  Has Mass   14.00307
   Atom    7 Element H  Has Mass    1.00783
   Atom    8 Element H  Has Mass    1.00783
   Atom    9 Element H  Has Mass    1.00783
   Atom   10 Element H  Has Mass    1.00783
   Atom   11 Element H  Has Mass    1.00783
   Atom   12 Element C  Has Mass   12.00000
   Atom   13 Element H  Has Mass    1.00783
   Molecular Mass:    92.050050 amu
   Principal axes and moments of inertia in amu*Bohr^2:
                             1           2           3
    Eigenvalues --      366.72117   475.98949   722.29627
          X               0.95871     0.07991     0.27291
          Y              -0.08000     0.99674    -0.01080
          Z              -0.27289    -0.01148     0.96198
   Rotational Symmetry Number is   1
   The Molecule is an Asymmetric Top
   Translational Enthalpy:        0.889 kcal/mol
   Rotational Enthalpy:           0.889 kcal/mol
   Vibrational Enthalpy:         63.889 kcal/mol
   gas constant (RT):             0.592 kcal/mol
   Translational Entropy:        39.471  cal/mol.K
   Rotational Entropy:           26.336  cal/mol.K
   Vibrational Entropy:           6.842  cal/mol.K

   Total Enthalpy:               66.259 kcal/mol
   Total Entropy:                72.649  cal/mol.K

 Total job time:  627.33s(wall), 543.10s(cpu)
        *  Thank you very much for using Q-Chem.  Have a nice day.  *
