 Q-Chem 5.0, Q-Chem, Inc., Pleasanton, CA (2017)
 Q-Chem 5.0.2 for Intel X86 EM64T Linux

User input:
--------------------------------------------------------------
$molecule
0 2
C        1.3708855104    0.1672357669    0.2914382142
C        0.4829170509   -1.0452792743   -0.0822900633
C       -0.9425659260   -0.9814847690    0.3259963964
C       -1.5238068320    0.2517198249    0.4074243920
C       -0.7233128106    1.3860238223    0.1317056845
N        0.6274273589    1.3458005860   -0.0503917930
H        2.2761531782    0.2036094511    0.8919151803
H        0.9687188771   -2.0217973697   -0.0178124059
H       -1.4739546140   -1.8982283550    0.5624409442
H       -2.5764542026    0.3790108977    0.6447482600
H       -1.1699089283    2.3620002214   -0.0433570054
C        1.1013199689   -0.1307593955   -1.0770318979
H        1.5475206856   -0.0400694605   -2.0536391661
$end

$rem
method                b3lyp
basis                 6-31+g(d,p)
unrestricted          true
symmetry              off
sym_ignore            true
incdft                false
incfock               0
scf_convergence       8
thresh                14
jobtype               sp
scf_guess             core
scf_guess_mix         5
scf_algorithm         diis
max_scf_cycles        100
$end

--------------------------------------------------------------

             Standard Nuclear Orientation (Angstroms)
    I     Atom           X                Y                Z
 ----------------------------------------------------------------
    1      C       1.3708855104     0.1672357669     0.2914382142
    2      C       0.4829170509    -1.0452792743    -0.0822900633
    3      C      -0.9425659260    -0.9814847690     0.3259963964
    4      C      -1.5238068320     0.2517198249     0.4074243920
    5      C      -0.7233128106     1.3860238223     0.1317056845
    6      N       0.6274273589     1.3458005860    -0.0503917930
    7      H       2.2761531782     0.2036094511     0.8919151803
    8      H       0.9687188771    -2.0217973697    -0.0178124059
    9      H      -1.4739546140    -1.8982283550     0.5624409442
   10      H      -2.5764542026     0.3790108977     0.6447482600
   11      H      -1.1699089283     2.3620002214    -0.0433570054
   12      C       1.1013199689    -0.1307593955    -1.0770318979
   13      H       1.5475206856    -0.0400694605    -2.0536391661
 ----------------------------------------------------------------

   22    -286.8342928429      2.68E-09 Convergence criterion met
 Total energy in the final basis set = -286.83429284

                    Orbital Energies (a.u.)
 --------------------------------------------------------------

 Alpha MOs
 -- Occupied --
-14.360 -10.243 -10.237 -10.228 -10.223 -10.205 -10.192  -0.982
 -0.831  -0.799  -0.656  -0.643  -0.594  -0.544  -0.494  -0.484
 -0.476  -0.409  -0.395  -0.376  -0.365  -0.314  -0.264  -0.255
 -0.176

 Beta MOs
 -- Occupied --
-14.363 -10.243 -10.229 -10.229 -10.216 -10.200 -10.195  -0.979
 -0.824  -0.793  -0.645  -0.640  -0.583  -0.539  -0.492  -0.481
 -0.470  -0.405  -0.392  -0.368  -0.356  -0.303  -0.258  -0.250

          Ground-State Mulliken Net Atomic Charges

     Atom                 Charge (a.u.)    Spin (a.u.)
  --------------------------------------------------------
      1 C                    -0.094543       0.005028
      2 C                    -0.050556      -0.068960
      3 C                    -0.194761       0.450882
      4 C                     0.178736      -0.230586
      5 C                    -0.284575       0.516641
      6 N                    -0.214260      -0.151143
      7 H                     0.138838       0.001085
      8 H                     0.140697       0.016549
      9 H                     0.127145      -0.021354
     10 H                     0.127247       0.010676
     11 H                     0.129050      -0.026622
     12 C                    -0.151383       0.519822
     13 H                     0.148364      -0.022018
  --------------------------------------------------------
  Sum of atomic charges =     0.000000

                    Cartesian Multipole Moments
 -----------------------------------------------------------------
    Charge (ESU x 10^10)
                 0.0000
    Dipole Moment (Debye)
         X       0.0896      Y      -1.8586      Z      -0.0326
       Tot       1.8611
    Quadrupole Moments (Debye-Ang)
        XX     -38.0308     XY      -3.1140     YY     -42.4184
        XZ      -0.9584     YZ      -0.0019     ZZ     -42.1010

 Total job time:  53.51s(wall), 113.51s(cpu)
        *  Thank you very much for using Q-Chem.  Have a nice day.  *
