 Q-Chem 5.0, Q-Chem, Inc., Pleasanton, CA (2017)
 Q-Chem 5.0.2 for Intel X86 EM64T Linux

User input:
--------------------------------------------------------------
$molecule
0 2
C        1.3975604365    0.2893366516    0.2738343338
C        0.4497343520   -1.1037127110   -0.1254540174
C       -0.9499061730   -0.9863810748    0.2817100735
C       -1.5288917035    0.2579987109    0.3916347753
C       -0.7672743896    1.4013831032    0.1600493258
N        0.5816962639    1.3662840041   -0.1384866300
H        2.3767518953    0.4704674416    0.7208730377
H        0.8651829410   -2.1192075306   -0.0646654809
H       -1.5277251015   -1.8969516754    0.4555089363
H       -2.5726182870    0.3678633672    0.6749331096
H       -1.2027457204    2.3975895783    0.2075505739
C        1.0794856685   -0.1482905700   -1.0401948189
H        1.7636891343   -0.3185973487   -1.8661464787
$end

$rem
method                b3lyp
basis                 6-31g(d)
unrestricted          true
symmetry              off
sym_ignore            true
incdft                false
incfock               0
scf_convergence       8
thresh                14
jobtype               freq
scf_guess             read
scf_algorithm         diis
max_scf_cycles        100
$end

--------------------------------------------------------------

             Standard Nuclear Orientation (Angstroms)
    I     Atom           X                Y                Z
 ----------------------------------------------------------------
    1      C       1.3975604365     0.2893366516     0.2738343338
    2      C       0.4497343520    -1.1037127110    -0.1254540174
    3      C      -0.9499061730    -0.9863810748     0.2817100735
    4      C      -1.5288917035     0.2579987109     0.3916347753
    5      C      -0.7672743896     1.4013831032     0.1600493258
    6      N       0.5816962639     1.3662840041    -0.1384866300
    7      H       2.3767518953     0.4704674416     0.7208730377
    8      H       0.8651829410    -2.1192075306    -0.0646654809
    9      H      -1.5277251015    -1.8969516754     0.4555089363
   10      H      -2.5726182870     0.3678633672     0.6749331096
   11      H      -1.2027457204     2.3975895783     0.2075505739
   12      C       1.0794856685    -0.1482905700    -1.0401948189
   13      H       1.7636891343    -0.3185973487    -1.8661464787
 ----------------------------------------------------------------

    2    -286.7952934937      1.02E-09 Convergence criterion met
 Total energy in the final basis set = -286.79529349

                    Orbital Energies (a.u.)
 --------------------------------------------------------------

 Alpha MOs
 -- Occupied --
-14.358 -10.233 -10.224 -10.222 -10.211 -10.194 -10.182  -0.966
 -0.811  -0.792  -0.650  -0.643  -0.565  -0.535  -0.485  -0.472
 -0.467  -0.403  -0.384  -0.377  -0.361  -0.285  -0.261  -0.248
 -0.156

 Beta MOs
 -- Occupied --
-14.361 -10.231 -10.225 -10.216 -10.204 -10.188 -10.185  -0.962
 -0.803  -0.786  -0.643  -0.635  -0.555  -0.530  -0.483  -0.467
 -0.460  -0.399  -0.377  -0.372  -0.351  -0.275  -0.247  -0.239

          Ground-State Mulliken Net Atomic Charges

     Atom                 Charge (a.u.)    Spin (a.u.)
  --------------------------------------------------------
      1 C                     0.015857       0.120080
      2 C                    -0.207159      -0.066772
      3 C                    -0.082327       0.447418
      4 C                    -0.131953      -0.202147
      5 C                     0.023132       0.471352
      6 N                    -0.399536      -0.125755
      7 H                     0.157970      -0.005986
      8 H                     0.148933       0.014065
      9 H                     0.134171      -0.021697
     10 H                     0.129931       0.009740
     11 H                     0.144411      -0.026833
     12 C                    -0.093824       0.403787
     13 H                     0.160395      -0.017251
  --------------------------------------------------------
  Sum of atomic charges =    -0.000000

                    Cartesian Multipole Moments
 -----------------------------------------------------------------
    Charge (ESU x 10^10)
                -0.0000
    Dipole Moment (Debye)
         X       0.2660      Y      -1.6159      Z       0.1790
       Tot       1.6474
    Quadrupole Moments (Debye-Ang)
        XX     -35.8131     XY      -2.3538     YY     -40.0743
        XZ      -1.4919     YZ       1.4363     ZZ     -42.2045

 Frequency:      -844.39                -240.46                 307.45
 Force Cnst:      2.2775                 0.1693                 0.1744
 Red. Mass:       5.4214                 4.9702                 3.1309
 IR Intens:       43.179                 11.441                  0.269
 Frequency:       345.45                 530.62                 574.45
 Force Cnst:      0.2272                 0.7336                 1.1767
 Red. Mass:       3.2319                 4.4220                 6.0522
 IR Intens:        5.315                  3.329                  1.289
 Frequency:       618.89                 688.24                 697.15
 Force Cnst:      0.6399                 0.3868                 0.3370
 Red. Mass:       2.8356                 1.3859                 1.1767
 IR Intens:       13.979                 42.842                 16.983
 Frequency:       779.77                 865.23                 884.22
 Force Cnst:      0.5152                 0.6242                 1.4439
 Red. Mass:       1.4380                 1.4152                 3.1345
 IR Intens:        1.491                  2.292                 26.489
 Frequency:       929.92                 934.47                 958.21
 Force Cnst:      1.6215                 0.6863                 1.0308
 Red. Mass:       3.1826                 1.3339                 1.9055
 IR Intens:        8.002                  1.765                 50.131
 Frequency:       984.88                1052.02                1079.56
 Force Cnst:      0.8966                 1.0535                 1.7586
 Red. Mass:       1.5689                 1.6156                 2.5610
 IR Intens:        0.824                  6.411                  8.299
 Frequency:      1142.25                1190.52                1214.67
 Force Cnst:      1.0353                 0.9968                 1.7231
 Red. Mass:       1.3467                 1.1936                 1.9822
 IR Intens:        8.795                  0.789                  3.177
 Frequency:      1273.57                1294.31                1393.59
 Force Cnst:      2.1635                 2.6702                 1.6408
 Red. Mass:       2.2639                 2.7053                 1.4340
 IR Intens:        6.257                 11.475                  2.383
 Frequency:      1437.00                1498.03                1558.16
 Force Cnst:      3.6139                 3.4048                 4.5922
 Red. Mass:       2.9704                 2.5751                 3.2103
 IR Intens:        7.206                  2.887                  0.685
 Frequency:      3068.67                3143.94                3144.26
 Force Cnst:      6.0289                 6.3488                 6.3449
 Red. Mass:       1.0867                 1.0902                 1.0893
 IR Intens:       17.849                 14.791                 13.646
 Frequency:      3178.28                3198.99                3207.11
 Force Cnst:      6.4668                 6.6082                 6.6482
 Red. Mass:       1.0866                 1.0960                 1.0970
 IR Intens:       11.213                 24.031                  1.791

 STANDARD THERMODYNAMIC QUANTITIES AT   298.15 K  AND     1.00 ATM

   This Molecule has  2 Imaginary Frequencies
   Zero point vibrational energy:       61.720 kcal/mol

   Atom    1 Element C  Has Mass   12.00000
   Atom    2 Element C  Has Mass   12.00000
   Atom    3 Element C  Has Mass   12.00000
   Atom    4 Element C  Has Mass   12.00000
   Atom    5 Element C  Has Mass   12.00000
   Atom    6 Element N  Has Mass   14.00307
   Atom    7 Element H  Has Mass    1.00783
   Atom    8 Element H  Has Mass    1.00783
   Atom    9 Element H  Has Mass    1.00783
   Atom   10 Element H  Has Mass    1.00783
   Atom   11 Element H  Has Mass    1.00783
   Atom   12 Element C  Has Mass   12.00000
   Atom   13 Element H  Has Mass    1.00783
   Molecular Mass:    92.050050 amu
   Principal axes and moments of inertia in amu*Bohr^2:
                             1           2           3
    Eigenvalues --      373.67919   473.37063   743.61266
          X               0.95960     0.08479     0.26829
          Y              -0.07587     0.99617    -0.04348
          Z              -0.27095     0.02137     0.96236
   Rotational Symmetry Number is   1
   The Molecule is an Asymmetric Top
   Translational Enthalpy:        0.889 kcal/mol
   Rotational Enthalpy:           0.889 kcal/mol
   Vibrational Enthalpy:         63.022 kcal/mol
   gas constant (RT):             0.592 kcal/mol
   Translational Entropy:        39.471  cal/mol.K
   Rotational Entropy:           26.378  cal/mol.K
   Vibrational Entropy:           6.073  cal/mol.K

   Total Enthalpy:               65.392 kcal/mol
   Total Entropy:                71.922  cal/mol.K

 Total job time:  291.64s(wall), 255.77s(cpu)
        *  Thank you very much for using Q-Chem.  Have a nice day.  *
