 Q-Chem 5.0, Q-Chem, Inc., Pleasanton, CA (2017)
 Q-Chem 5.0.2 for Intel X86 EM64T Linux

User input:
--------------------------------------------------------------
$molecule
0 2
C        1.3975604365    0.2893366516    0.2738343338
C        0.4497343520   -1.1037127110   -0.1254540174
C       -0.9499061730   -0.9863810748    0.2817100735
C       -1.5288917035    0.2579987109    0.3916347753
C       -0.7672743896    1.4013831032    0.1600493258
N        0.5816962639    1.3662840041   -0.1384866300
H        2.3767518953    0.4704674416    0.7208730377
H        0.8651829410   -2.1192075306   -0.0646654809
H       -1.5277251015   -1.8969516754    0.4555089363
H       -2.5726182870    0.3678633672    0.6749331096
H       -1.2027457204    2.3975895783    0.2075505739
C        1.0794856685   -0.1482905700   -1.0401948189
H        1.7636891343   -0.3185973487   -1.8661464787
$end

$rem
method                b3lyp
basis                 6-31g(d)
unrestricted          true
symmetry              off
sym_ignore            true
incdft                false
incfock               0
scf_convergence       8
thresh                14
jobtype               ts
scf_guess             read
scf_algorithm         diis
max_scf_cycles        100
geom_opt_max_cycles   500
geom_opt_dmax         100
geom_opt_tol_gradient 10
geom_opt_hessian      read
$end

--------------------------------------------------------------

    2    -286.7952934936      4.47E-10 Convergence criterion met
 Total energy in the final basis set = -286.79529349
   15    -286.7979216633      9.62E-09 Convergence criterion met
 Total energy in the final basis set = -286.79792166
   15    -286.8004439971      7.40E-09 Convergence criterion met
 Total energy in the final basis set = -286.80044400
   15    -286.8028012878      5.72E-09 Convergence criterion met
 Total energy in the final basis set = -286.80280129
   15    -286.8048995174      4.50E-09 Convergence criterion met
 Total energy in the final basis set = -286.80489952
   14    -286.8066523832      8.66E-09 Convergence criterion met
 Total energy in the final basis set = -286.80665238
   14    -286.8080276039      5.61E-09 Convergence criterion met
 Total energy in the final basis set = -286.80802760
   14    -286.8090826808      3.40E-09 Convergence criterion met
   13    -286.8121912142      3.80E-09 Convergence criterion met
 Total energy in the final basis set = -286.81219121
   13    -286.8122363672      3.76E-09 Convergence criterion met
 Total energy in the final basis set = -286.81223637
   13    -286.8122576496      3.76E-09 Convergence criterion met
 Total energy in the final basis set = -286.81225765
   12    -286.8122599903      8.00E-09 Convergence criterion met
 Total energy in the final basis set = -286.81225999
   10    -286.8122599732      6.46E-09 Convergence criterion met
 Total energy in the final basis set = -286.81225997
    9    -286.8122599906      4.41E-09 Convergence criterion met
 Total energy in the final basis set = -286.81225999

             Standard Nuclear Orientation (Angstroms)
    I     Atom           X                Y                Z
 ----------------------------------------------------------------
    1      C       1.3708855104     0.1672357669     0.2914382142
    2      C       0.4829170509    -1.0452792743    -0.0822900633
    3      C      -0.9425659260    -0.9814847690     0.3259963964
    4      C      -1.5238068320     0.2517198249     0.4074243920
    5      C      -0.7233128106     1.3860238223     0.1317056845
    6      N       0.6274273589     1.3458005860    -0.0503917930
    7      H       2.2761531782     0.2036094511     0.8919151803
    8      H       0.9687188771    -2.0217973697    -0.0178124059
    9      H      -1.4739546140    -1.8982283550     0.5624409442
   10      H      -2.5764542026     0.3790108977     0.6447482600
   11      H      -1.1699089283     2.3620002214    -0.0433570054
   12      C       1.1013199689    -0.1307593955    -1.0770318979
   13      H       1.5475206856    -0.0400694605    -2.0536391661
 ----------------------------------------------------------------

    9    -286.8122600067      8.58E-09 Convergence criterion met
 Total energy in the final basis set = -286.81226001
 Final energy is   -286.812260006725
 **  OPTIMIZATION CONVERGED  **

                    Orbital Energies (a.u.)
 --------------------------------------------------------------

 Alpha MOs
 -- Occupied --
-14.346 -10.233 -10.226 -10.218 -10.211 -10.194 -10.181  -0.970
 -0.820  -0.787  -0.645  -0.633  -0.585  -0.535  -0.485  -0.475
 -0.466  -0.399  -0.385  -0.367  -0.354  -0.303  -0.252  -0.244
 -0.164

 Beta MOs
 -- Occupied --
-14.349 -10.232 -10.218 -10.218 -10.204 -10.188 -10.184  -0.966
 -0.812  -0.782  -0.634  -0.629  -0.574  -0.531  -0.483  -0.472
 -0.460  -0.395  -0.383  -0.358  -0.344  -0.292  -0.245  -0.239

          Ground-State Mulliken Net Atomic Charges

     Atom                 Charge (a.u.)    Spin (a.u.)
  --------------------------------------------------------
      1 C                     0.041895       0.017483
      2 C                    -0.203583      -0.056186
      3 C                    -0.078592       0.431898
      4 C                    -0.143445      -0.205739
      5 C                     0.027485       0.507097
      6 N                    -0.406752      -0.161357
      7 H                     0.151809       0.001322
      8 H                     0.147504       0.015388
      9 H                     0.132773      -0.021195
     10 H                     0.129829       0.011050
     11 H                     0.140327      -0.026624
     12 C                    -0.103268       0.510628
     13 H                     0.164019      -0.023766
  --------------------------------------------------------
  Sum of atomic charges =    -0.000000

                    Cartesian Multipole Moments
 -----------------------------------------------------------------
    Charge (ESU x 10^10)
                 0.0000
    Dipole Moment (Debye)
         X       0.0876      Y      -1.6908      Z      -0.0240
       Tot       1.6932
    Quadrupole Moments (Debye-Ang)
        XX     -36.9280     XY      -2.7762     YY     -40.9729
        XZ      -1.0131     YZ       0.0483     ZZ     -40.5787

 Total job time:  720.11s(wall), 950.74s(cpu)
        *  Thank you very much for using Q-Chem.  Have a nice day.  *
