 Q-Chem 5.0, Q-Chem, Inc., Pleasanton, CA (2017)
 Q-Chem 5.0.2 for Intel X86 EM64T Linux

User input:
--------------------------------------------------------------
$molecule
0 2
C        1.3708855104    0.1672357669    0.2914382142
C        0.4829170509   -1.0452792743   -0.0822900633
C       -0.9425659260   -0.9814847690    0.3259963964
C       -1.5238068320    0.2517198249    0.4074243920
C       -0.7233128106    1.3860238223    0.1317056845
N        0.6274273589    1.3458005860   -0.0503917930
H        2.2761531782    0.2036094511    0.8919151803
H        0.9687188771   -2.0217973697   -0.0178124059
H       -1.4739546140   -1.8982283550    0.5624409442
H       -2.5764542026    0.3790108977    0.6447482600
H       -1.1699089283    2.3620002214   -0.0433570054
C        1.1013199689   -0.1307593955   -1.0770318979
H        1.5475206856   -0.0400694605   -2.0536391661
$end

$rem
method                b3lyp
basis                 6-31g(d)
unrestricted          true
symmetry              off
sym_ignore            true
incdft                false
incfock               0
scf_convergence       8
thresh                14
jobtype               sp
scf_guess             read
scf_algorithm         diis
max_scf_cycles        100
$end

--------------------------------------------------------------

             Standard Nuclear Orientation (Angstroms)
    I     Atom           X                Y                Z
 ----------------------------------------------------------------
    1      C       1.3708855104     0.1672357669     0.2914382142
    2      C       0.4829170509    -1.0452792743    -0.0822900633
    3      C      -0.9425659260    -0.9814847690     0.3259963964
    4      C      -1.5238068320     0.2517198249     0.4074243920
    5      C      -0.7233128106     1.3860238223     0.1317056845
    6      N       0.6274273589     1.3458005860    -0.0503917930
    7      H       2.2761531782     0.2036094511     0.8919151803
    8      H       0.9687188771    -2.0217973697    -0.0178124059
    9      H      -1.4739546140    -1.8982283550     0.5624409442
   10      H      -2.5764542026     0.3790108977     0.6447482600
   11      H      -1.1699089283     2.3620002214    -0.0433570054
   12      C       1.1013199689    -0.1307593955    -1.0770318979
   13      H       1.5475206856    -0.0400694605    -2.0536391661
 ----------------------------------------------------------------

    2    -286.8122600067      5.77E-09 Convergence criterion met
 Total energy in the final basis set = -286.81226001

                    Orbital Energies (a.u.)
 --------------------------------------------------------------

 Alpha MOs
 -- Occupied --
-14.346 -10.233 -10.226 -10.218 -10.211 -10.194 -10.181  -0.970
 -0.820  -0.787  -0.645  -0.633  -0.585  -0.535  -0.485  -0.475
 -0.466  -0.399  -0.385  -0.367  -0.354  -0.303  -0.252  -0.244
 -0.164

 Beta MOs
 -- Occupied --
-14.349 -10.232 -10.218 -10.218 -10.204 -10.188 -10.184  -0.966
 -0.812  -0.782  -0.634  -0.629  -0.574  -0.531  -0.483  -0.472
 -0.460  -0.395  -0.383  -0.358  -0.344  -0.292  -0.245  -0.239

          Ground-State Mulliken Net Atomic Charges

     Atom                 Charge (a.u.)    Spin (a.u.)
  --------------------------------------------------------
      1 C                     0.041895       0.017483
      2 C                    -0.203583      -0.056186
      3 C                    -0.078592       0.431899
      4 C                    -0.143445      -0.205739
      5 C                     0.027485       0.507097
      6 N                    -0.406752      -0.161356
      7 H                     0.151809       0.001322
      8 H                     0.147504       0.015388
      9 H                     0.132773      -0.021195
     10 H                     0.129830       0.011050
     11 H                     0.140327      -0.026624
     12 C                    -0.103268       0.510626
     13 H                     0.164019      -0.023766
  --------------------------------------------------------
  Sum of atomic charges =    -0.000000

                    Cartesian Multipole Moments
 -----------------------------------------------------------------
    Charge (ESU x 10^10)
                 0.0000
    Dipole Moment (Debye)
         X       0.0876      Y      -1.6908      Z      -0.0240
       Tot       1.6932
    Quadrupole Moments (Debye-Ang)
        XX     -36.9280     XY      -2.7762     YY     -40.9729
        XZ      -1.0131     YZ       0.0483     ZZ     -40.5787

 Total job time:  10.46s(wall), 6.92s(cpu)
        *  Thank you very much for using Q-Chem.  Have a nice day.  *
