 Q-Chem 5.0, Q-Chem, Inc., Pleasanton, CA (2017)
 Q-Chem 5.0.2 for Intel X86 EM64T Linux

User input:
--------------------------------------------------------------
$molecule
0 2
C        1.3708855104    0.1672357669    0.2914382142
C        0.4829170509   -1.0452792743   -0.0822900633
C       -0.9425659260   -0.9814847690    0.3259963964
C       -1.5238068320    0.2517198249    0.4074243920
C       -0.7233128106    1.3860238223    0.1317056845
N        0.6274273589    1.3458005860   -0.0503917930
H        2.2761531782    0.2036094511    0.8919151803
H        0.9687188771   -2.0217973697   -0.0178124059
H       -1.4739546140   -1.8982283550    0.5624409442
H       -2.5764542026    0.3790108977    0.6447482600
H       -1.1699089283    2.3620002214   -0.0433570054
C        1.1013199689   -0.1307593955   -1.0770318979
H        1.5475206856   -0.0400694605   -2.0536391661
$end

$rem
method                b3lyp
basis                 6-31+g(d,p)
unrestricted          true
symmetry              off
sym_ignore            true
incdft                false
incfock               0
scf_convergence       8
thresh                14
jobtype               ts
scf_guess             read
scf_algorithm         diis
max_scf_cycles        100
geom_opt_max_cycles   500
geom_opt_dmax         100
geom_opt_tol_gradient 10
geom_opt_hessian      read
$end

--------------------------------------------------------------

    2    -286.8342928429      2.35E-10 Convergence criterion met
 Total energy in the final basis set = -286.83429284
   13    -286.8343100466      2.91E-09 Convergence criterion met
 Total energy in the final basis set = -286.83431005

             Standard Nuclear Orientation (Angstroms)
    I     Atom           X                Y                Z
 ----------------------------------------------------------------
    1      C       1.3719436764     0.1673485149     0.2934192663
    2      C       0.4830535171    -1.0466054607    -0.0817588098
    3      C      -0.9421356918    -0.9828063532     0.3265233209
    4      C      -1.5253823204     0.2520937070     0.4050403958
    5      C      -0.7248474755     1.3875192505     0.1294994651
    6      N       0.6276356574     1.3438634864    -0.0501085152
    7      H       2.2783272381     0.2035167217     0.8900294873
    8      H       0.9694321922    -2.0223439636    -0.0183033866
    9      H      -1.4732624941    -1.8987010564     0.5650071969
   10      H      -2.5774516516     0.3786488797     0.6422634366
   11      H      -1.1683339442     2.3646047960    -0.0414740147
   12      C       1.1001281186    -0.1321214816    -1.0765998445
   13      H       1.5458324944    -0.0372350944    -2.0523912582
 ----------------------------------------------------------------

    6    -286.8343100478      6.58E-09 Convergence criterion met
 Total energy in the final basis set = -286.83431005
 Final energy is   -286.834310047812
 **  OPTIMIZATION CONVERGED  **

                    Orbital Energies (a.u.)
 --------------------------------------------------------------

 Alpha MOs
 -- Occupied --
-14.360 -10.243 -10.237 -10.228 -10.223 -10.205 -10.193  -0.982
 -0.831  -0.799  -0.656  -0.643  -0.594  -0.544  -0.494  -0.484
 -0.476  -0.409  -0.395  -0.377  -0.365  -0.314  -0.264  -0.255
 -0.175

 Beta MOs
 -- Occupied --
-14.363 -10.243 -10.230 -10.229 -10.216 -10.200 -10.195  -0.978
 -0.824  -0.793  -0.644  -0.640  -0.583  -0.539  -0.491  -0.481
 -0.470  -0.405  -0.392  -0.368  -0.356  -0.303  -0.257  -0.250

          Ground-State Mulliken Net Atomic Charges

     Atom                 Charge (a.u.)    Spin (a.u.)
  --------------------------------------------------------
      1 C                    -0.094233       0.005995
      2 C                    -0.049846      -0.069073
      3 C                    -0.194468       0.454403
      4 C                     0.176115      -0.232140
      5 C                    -0.283830       0.518361
      6 N                    -0.214991      -0.150581
      7 H                     0.138962       0.000970
      8 H                     0.140702       0.016319
      9 H                     0.127146      -0.021500
     10 H                     0.127150       0.010730
     11 H                     0.129313      -0.026750
     12 C                    -0.150497       0.515124
     13 H                     0.148476      -0.021856
  --------------------------------------------------------
  Sum of atomic charges =     0.000000

                    Cartesian Multipole Moments
 -----------------------------------------------------------------
    Charge (ESU x 10^10)
                -0.0000
    Dipole Moment (Debye)
         X       0.0991      Y      -1.8513      Z      -0.0339
       Tot       1.8543
    Quadrupole Moments (Debye-Ang)
        XX     -38.0283     XY      -3.1175     YY     -42.3947
        XZ      -0.9630     YZ      -0.0026     ZZ     -42.1117

 Total job time:  76.17s(wall), 163.32s(cpu)
        *  Thank you very much for using Q-Chem.  Have a nice day.  *
