 Q-Chem 5.0, Q-Chem, Inc., Pleasanton, CA (2017)
 Q-Chem 5.0.2 for Intel X86 EM64T Linux

User input:
--------------------------------------------------------------
$molecule
0 2
C        1.3708855104    0.1672357669    0.2914382142
C        0.4829170509   -1.0452792743   -0.0822900633
C       -0.9425659260   -0.9814847690    0.3259963964
C       -1.5238068320    0.2517198249    0.4074243920
C       -0.7233128106    1.3860238223    0.1317056845
N        0.6274273589    1.3458005860   -0.0503917930
H        2.2761531782    0.2036094511    0.8919151803
H        0.9687188771   -2.0217973697   -0.0178124059
H       -1.4739546140   -1.8982283550    0.5624409442
H       -2.5764542026    0.3790108977    0.6447482600
H       -1.1699089283    2.3620002214   -0.0433570054
C        1.1013199689   -0.1307593955   -1.0770318979
H        1.5475206856   -0.0400694605   -2.0536391661
$end

$rem
method                b3lyp
basis                 6-31+g(d,p)
unrestricted          true
symmetry              off
sym_ignore            true
incdft                false
incfock               0
scf_convergence       8
thresh                14
jobtype               freq
scf_guess             read
scf_algorithm         diis
max_scf_cycles        100
$end

--------------------------------------------------------------

             Standard Nuclear Orientation (Angstroms)
    I     Atom           X                Y                Z
 ----------------------------------------------------------------
    1      C       1.3708855104     0.1672357669     0.2914382142
    2      C       0.4829170509    -1.0452792743    -0.0822900633
    3      C      -0.9425659260    -0.9814847690     0.3259963964
    4      C      -1.5238068320     0.2517198249     0.4074243920
    5      C      -0.7233128106     1.3860238223     0.1317056845
    6      N       0.6274273589     1.3458005860    -0.0503917930
    7      H       2.2761531782     0.2036094511     0.8919151803
    8      H       0.9687188771    -2.0217973697    -0.0178124059
    9      H      -1.4739546140    -1.8982283550     0.5624409442
   10      H      -2.5764542026     0.3790108977     0.6447482600
   11      H      -1.1699089283     2.3620002214    -0.0433570054
   12      C       1.1013199689    -0.1307593955    -1.0770318979
   13      H       1.5475206856    -0.0400694605    -2.0536391661
 ----------------------------------------------------------------

    2    -286.8342928429      7.05E-10 Convergence criterion met
 Total energy in the final basis set = -286.83429284

                    Orbital Energies (a.u.)
 --------------------------------------------------------------

 Alpha MOs
 -- Occupied --
-14.360 -10.243 -10.237 -10.228 -10.223 -10.205 -10.192  -0.982
 -0.831  -0.799  -0.656  -0.643  -0.594  -0.544  -0.494  -0.484
 -0.476  -0.409  -0.395  -0.376  -0.365  -0.314  -0.264  -0.255
 -0.176

 Beta MOs
 -- Occupied --
-14.363 -10.243 -10.229 -10.229 -10.216 -10.200 -10.195  -0.979
 -0.824  -0.793  -0.645  -0.640  -0.583  -0.539  -0.492  -0.481
 -0.470  -0.405  -0.392  -0.368  -0.356  -0.303  -0.258  -0.250

          Ground-State Mulliken Net Atomic Charges

     Atom                 Charge (a.u.)    Spin (a.u.)
  --------------------------------------------------------
      1 C                    -0.094543       0.005028
      2 C                    -0.050556      -0.068961
      3 C                    -0.194760       0.450883
      4 C                     0.178736      -0.230587
      5 C                    -0.284575       0.516641
      6 N                    -0.214260      -0.151144
      7 H                     0.138838       0.001085
      8 H                     0.140697       0.016549
      9 H                     0.127145      -0.021354
     10 H                     0.127247       0.010676
     11 H                     0.129050      -0.026621
     12 C                    -0.151383       0.519824
     13 H                     0.148364      -0.022019
  --------------------------------------------------------
  Sum of atomic charges =    -0.000000

                    Cartesian Multipole Moments
 -----------------------------------------------------------------
    Charge (ESU x 10^10)
                -0.0000
    Dipole Moment (Debye)
         X       0.0896      Y      -1.8586      Z      -0.0326
       Tot       1.8611
    Quadrupole Moments (Debye-Ang)
        XX     -38.0308     XY      -3.1140     YY     -42.4184
        XZ      -0.9584     YZ      -0.0019     ZZ     -42.1010

 Frequency:      -719.56                 316.00                 334.44
 Force Cnst:      2.6573                 0.1720                 0.1596
 Red. Mass:       8.7108                 2.9244                 2.4215
 IR Intens:       37.950                  3.160                  4.344
 Frequency:       471.41                 527.25                 584.36
 Force Cnst:      0.1750                 0.5518                 0.7666
 Red. Mass:       1.3369                 3.3692                 3.8105
 IR Intens:       15.672                  4.661                  5.250
 Frequency:       615.46                 679.30                 734.37
 Force Cnst:      0.7487                 0.5507                 0.6336
 Red. Mass:       3.3550                 2.0256                 1.9940
 IR Intens:        9.621                 25.382                 46.306
 Frequency:       800.88                 825.29                 891.87
 Force Cnst:      0.5812                 0.5562                 1.9300
 Red. Mass:       1.5380                 1.3861                 4.1182
 IR Intens:        8.858                 10.161                  7.107
 Frequency:       926.55                 929.39                 977.27
 Force Cnst:      0.8243                 0.9217                 1.1317
 Red. Mass:       1.6297                 1.8111                 2.0112
 IR Intens:        2.184                  4.496                  7.546
 Frequency:      1010.91                1014.27                1053.26
 Force Cnst:      1.1310                 1.2283                 1.2641
 Red. Mass:       1.8783                 2.0265                 1.9340
 IR Intens:        2.183                 12.759                  1.210
 Frequency:      1114.93                1162.76                1196.08
 Force Cnst:      1.2498                 0.9512                 1.4164
 Red. Mass:       1.7065                 1.1941                 1.6804
 IR Intens:        2.493                  4.175                  8.550
 Frequency:      1256.80                1285.96                1387.68
 Force Cnst:      3.8259                 1.4765                 1.6413
 Red. Mass:       4.1111                 1.5154                 1.4466
 IR Intens:        8.192                  5.471                  1.853
 Frequency:      1423.30                1460.33                1572.39
 Force Cnst:      3.0510                 3.3883                 5.6370
 Red. Mass:       2.5562                 2.6967                 3.8697
 IR Intens:        8.220                  3.722                  4.072
 Frequency:      3105.65                3169.62                3173.81
 Force Cnst:      6.1720                 6.4627                 6.4587
 Red. Mass:       1.0861                 1.0918                 1.0883
 IR Intens:       18.372                 27.583                  5.067
 Frequency:      3188.59                3206.75                3295.28
 Force Cnst:      6.5227                 6.6498                 7.0405
 Red. Mass:       1.0889                 1.0976                 1.1004
 IR Intens:       18.057                 12.924                  5.358

 STANDARD THERMODYNAMIC QUANTITIES AT   298.15 K  AND     1.00 ATM

   This Molecule has  1 Imaginary Frequencies
   Zero point vibrational energy:       62.461 kcal/mol

   Atom    1 Element C  Has Mass   12.00000
   Atom    2 Element C  Has Mass   12.00000
   Atom    3 Element C  Has Mass   12.00000
   Atom    4 Element C  Has Mass   12.00000
   Atom    5 Element C  Has Mass   12.00000
   Atom    6 Element N  Has Mass   14.00307
   Atom    7 Element H  Has Mass    1.00783
   Atom    8 Element H  Has Mass    1.00783
   Atom    9 Element H  Has Mass    1.00783
   Atom   10 Element H  Has Mass    1.00783
   Atom   11 Element H  Has Mass    1.00783
   Atom   12 Element C  Has Mass   12.00000
   Atom   13 Element H  Has Mass    1.00783
   Molecular Mass:    92.050050 amu
   Principal axes and moments of inertia in amu*Bohr^2:
                             1           2           3
    Eigenvalues --      366.34508   475.74809   721.94109
          X               0.95849     0.07835     0.27416
          Y              -0.07820     0.99687    -0.01151
          Z              -0.27420    -0.01041     0.96162
   Rotational Symmetry Number is   1
   The Molecule is an Asymmetric Top
   Translational Enthalpy:        0.889 kcal/mol
   Rotational Enthalpy:           0.889 kcal/mol
   Vibrational Enthalpy:         63.919 kcal/mol
   gas constant (RT):             0.592 kcal/mol
   Translational Entropy:        39.471  cal/mol.K
   Rotational Entropy:           26.334  cal/mol.K
   Vibrational Entropy:           6.809  cal/mol.K

   Total Enthalpy:               66.289 kcal/mol
   Total Entropy:                72.614  cal/mol.K

 Total job time:  602.91s(wall), 545.63s(cpu)
        *  Thank you very much for using Q-Chem.  Have a nice day.  *
