 Q-Chem 5.0, Q-Chem, Inc., Pleasanton, CA (2017)
 Q-Chem 5.0.2 for Intel X86 EM64T Linux

User input:
--------------------------------------------------------------
$molecule
0 2
C        1.3975604365    0.2893366516    0.2738343338
C        0.4497343520   -1.1037127110   -0.1254540174
C       -0.9499061730   -0.9863810748    0.2817100735
C       -1.5288917035    0.2579987109    0.3916347753
C       -0.7672743896    1.4013831032    0.1600493258
N        0.5816962639    1.3662840041   -0.1384866300
H        2.3767518953    0.4704674416    0.7208730377
H        0.8651829410   -2.1192075306   -0.0646654809
H       -1.5277251015   -1.8969516754    0.4555089363
H       -2.5726182870    0.3678633672    0.6749331096
H       -1.2027457204    2.3975895783    0.2075505739
C        1.0794856685   -0.1482905700   -1.0401948189
H        1.7636891343   -0.3185973487   -1.8661464787
$end

$rem
method                b3lyp
basis                 6-31g(d)
unrestricted          true
symmetry              off
sym_ignore            true
incdft                false
incfock               0
scf_convergence       6
thresh                14
jobtype               sp
scf_guess             read
scf_algorithm         diis
max_scf_cycles        100
stability_analysis    true
max_cis_cycles        100
cis_n_roots           4
$end

--------------------------------------------------------------

             Standard Nuclear Orientation (Angstroms)
    I     Atom           X                Y                Z
 ----------------------------------------------------------------
    1      C       1.3975604365     0.2893366516     0.2738343338
    2      C       0.4497343520    -1.1037127110    -0.1254540174
    3      C      -0.9499061730    -0.9863810748     0.2817100735
    4      C      -1.5288917035     0.2579987109     0.3916347753
    5      C      -0.7672743896     1.4013831032     0.1600493258
    6      N       0.5816962639     1.3662840041    -0.1384866300
    7      H       2.3767518953     0.4704674416     0.7208730377
    8      H       0.8651829410    -2.1192075306    -0.0646654809
    9      H      -1.5277251015    -1.8969516754     0.4555089363
   10      H      -2.5726182870     0.3678633672     0.6749331096
   11      H      -1.2027457204     2.3975895783     0.2075505739
   12      C       1.0794856685    -0.1482905700    -1.0401948189
   13      H       1.7636891343    -0.3185973487    -1.8661464787
 ----------------------------------------------------------------

    2    -286.7952934936      1.38E-09 Convergence criterion met
 Total energy in the final basis set = -286.79529349

         TDDFT/TDA Excitation Energies
 ---------------------------------------------------

 Excited state   1: excitation energy (eV) =    2.0909
 Total energy for state  1:                  -286.71845301 au
    <S**2>     :  0.8076
    Trans. Mom.:  0.2133 X   0.0655 Y  -0.2411 Z
    Strength   :     0.0055278331
    S(  1) --> V(  1) amplitude =  0.9619 alpha
    D( 23) --> S(  1) amplitude = -0.2268 beta

 Excited state   2: excitation energy (eV) =    3.3192
 Total energy for state  2:                  -286.67331628 au
    <S**2>     :  0.8145
    Trans. Mom.:  0.2520 X  -0.0269 Y  -0.0312 Z
    Strength   :     0.0053031098
    S(  1) --> V(  2) amplitude =  0.2805 alpha
    D( 24) --> S(  1) amplitude =  0.9390 beta

 Excited state   3: excitation energy (eV) =    3.6090
 Total energy for state  3:                  -286.66266418 au
    <S**2>     :  0.9796
    Trans. Mom.:  0.2147 X   0.1579 Y  -0.2074 Z
    Strength   :     0.0100865448
    D( 24) --> V(  1) amplitude =  0.2905 alpha
    S(  1) --> V(  1) amplitude =  0.1947 alpha
    D( 23) --> S(  1) amplitude =  0.8671 beta
    D( 24) --> S(  1) amplitude = -0.1571 beta

 Excited state   4: excitation energy (eV) =    3.9615
 Total energy for state  4:                  -286.64971056 au
    <S**2>     :  1.5583
    Trans. Mom.: -0.2238 X  -0.0926 Y   0.1066 Z
    Strength   :     0.0067979220
    D( 23) --> V(  1) amplitude =  0.4640 alpha
    S(  1) --> V(  2) amplitude =  0.4963 alpha
    D( 22) --> S(  1) amplitude = -0.4898 beta
    D( 23) --> S(  1) amplitude = -0.2388 beta
    D( 23) --> V(  1) amplitude =  0.4209 beta

 ---------------------------------------------------

                    Orbital Energies (a.u.)
 --------------------------------------------------------------

 Alpha MOs
 -- Occupied --
-14.358 -10.233 -10.224 -10.222 -10.211 -10.194 -10.182  -0.966
 -0.811  -0.792  -0.650  -0.643  -0.565  -0.535  -0.485  -0.472
 -0.467  -0.403  -0.384  -0.377  -0.361  -0.285  -0.261  -0.248
 -0.156

 Beta MOs
 -- Occupied --
-14.361 -10.231 -10.225 -10.216 -10.204 -10.188 -10.185  -0.962
 -0.803  -0.786  -0.643  -0.635  -0.555  -0.530  -0.483  -0.467
 -0.460  -0.399  -0.377  -0.372  -0.351  -0.275  -0.247  -0.239

          Ground-State Mulliken Net Atomic Charges

     Atom                 Charge (a.u.)    Spin (a.u.)
  --------------------------------------------------------
      1 C                     0.015857       0.120080
      2 C                    -0.207159      -0.066772
      3 C                    -0.082327       0.447418
      4 C                    -0.131953      -0.202147
      5 C                     0.023132       0.471352
      6 N                    -0.399536      -0.125755
      7 H                     0.157970      -0.005986
      8 H                     0.148933       0.014065
      9 H                     0.134171      -0.021697
     10 H                     0.129931       0.009740
     11 H                     0.144411      -0.026833
     12 C                    -0.093824       0.403787
     13 H                     0.160395      -0.017251
  --------------------------------------------------------
  Sum of atomic charges =    -0.000000

                    Cartesian Multipole Moments
 -----------------------------------------------------------------
    Charge (ESU x 10^10)
                -0.0000
    Dipole Moment (Debye)
         X       0.2660      Y      -1.6159      Z       0.1790
       Tot       1.6474
    Quadrupole Moments (Debye-Ang)
        XX     -35.8131     XY      -2.3538     YY     -40.0743
        XZ      -1.4919     YZ       1.4363     ZZ     -42.2045

 Total job time:  141.63s(wall), 88.65s(cpu)
        *  Thank you very much for using Q-Chem.  Have a nice day.  *
