 Q-Chem 5.0, Q-Chem, Inc., Pleasanton, CA (2017)
 Q-Chem 5.0.2 for Intel X86 EM64T Linux

User input:
--------------------------------------------------------------
$molecule
0 2
C        1.3829522869    0.7512314606   -0.6641941997
C        0.1074352754   -0.8430692904   -0.5105267812
C       -0.7963937107   -1.0287090628    0.6681743706
C       -1.3849853066    0.1971709708    0.9706061492
C       -0.9270060280    1.1866936444    0.1017052671
N       -0.0484191819    0.6327082552   -0.8618734887
H        1.9619808844    1.6582154776   -0.7976379123
H       -0.1175570398   -1.5030198012   -1.3605321526
H       -1.0076520197   -1.9809611214    1.1370095821
H       -2.1097548465    0.3663705164    1.7601105581
H       -1.1459931618    2.2460310750    0.0992274279
C        1.6047052893   -0.5347131272   -0.3542310014
H        2.4806875595   -1.1479489973   -0.1878378191
$end

$rem
method                b3lyp
basis                 6-31+g(d,p)
unrestricted          true
symmetry              off
sym_ignore            true
incdft                false
incfock               0
scf_convergence       8
thresh                14
jobtype               sp
scf_guess             core
scf_guess_mix         5
scf_algorithm         diis
max_scf_cycles        100
$end

--------------------------------------------------------------

             Standard Nuclear Orientation (Angstroms)
    I     Atom           X                Y                Z
 ----------------------------------------------------------------
    1      C       1.3829522869     0.7512314606    -0.6641941997
    2      C       0.1074352754    -0.8430692904    -0.5105267812
    3      C      -0.7963937107    -1.0287090628     0.6681743706
    4      C      -1.3849853066     0.1971709708     0.9706061492
    5      C      -0.9270060280     1.1866936444     0.1017052671
    6      N      -0.0484191819     0.6327082552    -0.8618734887
    7      H       1.9619808844     1.6582154776    -0.7976379123
    8      H      -0.1175570398    -1.5030198012    -1.3605321526
    9      H      -1.0076520197    -1.9809611214     1.1370095821
   10      H      -2.1097548465     0.3663705164     1.7601105581
   11      H      -1.1459931618     2.2460310750     0.0992274279
   12      C       1.6047052893    -0.5347131272    -0.3542310014
   13      H       2.4806875595    -1.1479489973    -0.1878378191
 ----------------------------------------------------------------

   22    -286.8854568938      7.22E-09 Convergence criterion met
 Total energy in the final basis set = -286.88545689

                    Orbital Energies (a.u.)
 --------------------------------------------------------------

 Alpha MOs
 -- Occupied --
-14.362 -10.236 -10.232 -10.222 -10.199 -10.198 -10.197  -0.988
 -0.816  -0.763  -0.684  -0.626  -0.571  -0.537  -0.515  -0.496
 -0.440  -0.407  -0.402  -0.386  -0.361  -0.332  -0.296  -0.246
 -0.161

 Beta MOs
 -- Occupied --
-14.359 -10.237 -10.232 -10.215 -10.201 -10.198 -10.189  -0.982
 -0.809  -0.753  -0.681  -0.615  -0.566  -0.533  -0.511  -0.491
 -0.433  -0.405  -0.397  -0.382  -0.355  -0.318  -0.279  -0.235

          Ground-State Mulliken Net Atomic Charges

     Atom                 Charge (a.u.)    Spin (a.u.)
  --------------------------------------------------------
      1 C                    -0.080536       0.005460
      2 C                    -0.130524      -0.074561
      3 C                    -0.156641       0.645688
      4 C                    -0.046004      -0.267860
      5 C                    -0.112684       0.610223
      6 N                    -0.214083       0.067284
      7 H                     0.136415       0.000957
      8 H                     0.156096       0.032265
      9 H                     0.129845      -0.029435
     10 H                     0.128557       0.007650
     11 H                     0.135813      -0.027535
     12 C                    -0.077386       0.021919
     13 H                     0.131132       0.007945
  --------------------------------------------------------
  Sum of atomic charges =    -0.000000

                    Cartesian Multipole Moments
 -----------------------------------------------------------------
    Charge (ESU x 10^10)
                -0.0000
    Dipole Moment (Debye)
         X       0.5036      Y      -0.1391      Z       0.5831
       Tot       0.7829
    Quadrupole Moments (Debye-Ang)
        XX     -40.1349     XY       0.0191     YY     -36.9138
        XZ      -2.6887     YZ       0.4745     ZZ     -44.5501

 Total job time:  41.19s(wall), 113.30s(cpu)
        *  Thank you very much for using Q-Chem.  Have a nice day.  *
