 Q-Chem 5.0, Q-Chem, Inc., Pleasanton, CA (2017)
 Q-Chem 5.0.2 for Intel X86 EM64T Linux

User input:
--------------------------------------------------------------
$molecule
0 2
C        1.4676687242    0.5452840102   -0.6727566149
C       -0.2250796822   -1.1343038639    0.0537042683
C       -1.4650669209   -1.0693263399    0.6457468959
C       -1.7706319697    0.3120927109    0.8583157717
C       -0.7057250004    1.0424611563    0.3870540444
N        0.2428849616    0.1588279203   -0.1066472551
H        1.6090285550    1.6288999340   -0.6873860143
H        0.3695567280   -1.9747181366   -0.2703478386
H       -2.0866687747   -1.9163412881    0.9008662691
H       -2.6675105475    0.7175185915    1.3051629390
H       -0.5316783418    2.1081201048    0.3556225955
C        2.3971812730   -0.2589237913   -1.1532965085
H        3.3660409954   -0.1595910082   -1.6160385524
$end

$rem
method                b3lyp
basis                 6-31+g(d,p)
unrestricted          true
symmetry              off
sym_ignore            true
incdft                false
incfock               0
scf_convergence       6
thresh                14
jobtype               sp
scf_guess             read
scf_algorithm         diis
max_scf_cycles        100
stability_analysis    true
max_cis_cycles        100
cis_n_roots           4
$end

--------------------------------------------------------------

             Standard Nuclear Orientation (Angstroms)
    I     Atom           X                Y                Z
 ----------------------------------------------------------------
    1      C       1.4676687242     0.5452840102    -0.6727566149
    2      C      -0.2250796822    -1.1343038639     0.0537042683
    3      C      -1.4650669209    -1.0693263399     0.6457468959
    4      C      -1.7706319697     0.3120927109     0.8583157717
    5      C      -0.7057250004     1.0424611563     0.3870540444
    6      N       0.2428849616     0.1588279203    -0.1066472551
    7      H       1.6090285550     1.6288999340    -0.6873860143
    8      H       0.3695567280    -1.9747181366    -0.2703478386
    9      H      -2.0866687747    -1.9163412881     0.9008662691
   10      H      -2.6675105475     0.7175185915     1.3051629390
   11      H      -0.5316783418     2.1081201048     0.3556225955
   12      C       2.3971812730    -0.2589237913    -1.1532965085
   13      H       3.3660409954    -0.1595910082    -1.6160385524
 ----------------------------------------------------------------

    2    -286.8971243654      5.36E-09 Convergence criterion met
 Total energy in the final basis set = -286.89712437

         TDDFT/TDA Excitation Energies
 ---------------------------------------------------

 Excited state   1: excitation energy (eV) =    1.8220
 Total energy for state  1:                  -286.83016764 au
    <S**2>     :  0.7720
    Trans. Mom.:  0.0703 X  -0.0082 Y   0.1390 Z
    Strength   :     0.0010859978
    D( 22) --> S(  1) amplitude = -0.2362 beta
    D( 23) --> S(  1) amplitude =  0.9165 beta
    D( 24) --> S(  1) amplitude =  0.3045 beta

 Excited state   2: excitation energy (eV) =    2.4195
 Total energy for state  2:                  -286.80820872 au
    <S**2>     :  0.8001
    Trans. Mom.: -0.0120 X   0.0014 Y  -0.0252 Z
    Strength   :     0.0000464163
    D( 23) --> S(  1) amplitude = -0.3128 beta
    D( 24) --> S(  1) amplitude =  0.9493 beta

 Excited state   3: excitation energy (eV) =    3.6951
 Total energy for state  3:                  -286.76133310 au
    <S**2>     :  2.7408
    Trans. Mom.: -0.0172 X   0.0256 Y   0.0093 Z
    Strength   :     0.0000938671
    S(  1) --> V(  1) amplitude =  0.7120 alpha
    D( 24) --> V(  1) amplitude = -0.6141 beta

 Excited state   4: excitation energy (eV) =    3.8406
 Total energy for state  4:                  -286.75598324 au
    <S**2>     :  2.7349
    Trans. Mom.:  0.0292 X  -0.0108 Y  -0.0139 Z
    Strength   :     0.0001089958
    D( 22) --> V(  1) amplitude =  0.1564 alpha
    D( 24) --> V(  1) amplitude = -0.6580 alpha
    D( 23) --> V(  1) amplitude =  0.6824 beta

 ---------------------------------------------------

                    Orbital Energies (a.u.)
 --------------------------------------------------------------

 Alpha MOs
 -- Occupied --
-14.405 -10.254 -10.227 -10.218 -10.214 -10.184 -10.183  -1.001
 -0.829  -0.749  -0.732  -0.629  -0.585  -0.554  -0.523  -0.485
 -0.439  -0.436  -0.427  -0.396  -0.385  -0.316  -0.265  -0.237
 -0.224

 Beta MOs
 -- Occupied --
-14.404 -10.256 -10.218 -10.214 -10.212 -10.184 -10.183  -1.000
 -0.824  -0.737  -0.729  -0.617  -0.584  -0.553  -0.510  -0.476
 -0.436  -0.436  -0.425  -0.395  -0.385  -0.313  -0.229  -0.224

          Ground-State Mulliken Net Atomic Charges

     Atom                 Charge (a.u.)    Spin (a.u.)
  --------------------------------------------------------
      1 C                     0.037287      -0.355263
      2 C                    -0.268057       0.017033
      3 C                    -0.058898      -0.018271
      4 C                    -0.088170      -0.016719
      5 C                    -0.194289      -0.016070
      6 N                     0.026109       0.020724
      7 H                     0.142866       0.068407
      8 H                     0.146179      -0.001101
      9 H                     0.125656       0.000991
     10 H                     0.125971       0.000996
     11 H                     0.132528       0.000057
     12 C                    -0.287557       1.300161
     13 H                     0.160374      -0.000944
  --------------------------------------------------------
  Sum of atomic charges =    -0.000000

                    Cartesian Multipole Moments
 -----------------------------------------------------------------
    Charge (ESU x 10^10)
                -0.0000
    Dipole Moment (Debye)
         X       0.9893      Y       1.0199      Z      -0.4287
       Tot       1.4841
    Quadrupole Moments (Debye-Ang)
        XX     -38.5213     XY       1.6098     YY     -37.5745
        XZ      -4.0501     YZ      -0.3022     ZZ     -45.2088

 Total job time:  197.32s(wall), 179.90s(cpu)
        *  Thank you very much for using Q-Chem.  Have a nice day.  *
