 Q-Chem 5.0, Q-Chem, Inc., Pleasanton, CA (2017)
 Q-Chem 5.0.2 for Intel X86 EM64T Linux

User input:
--------------------------------------------------------------
$molecule
0 2
C        1.3377229558    0.8633036749   -0.5689202540
C        0.2724920303   -1.4150735814   -0.2177472916
C       -0.9149507936   -1.0758508718    0.3588085212
C       -1.3818425014    0.2524025871    0.6619370436
C       -0.7392129679    1.4561108584    0.4366243794
N        0.4581320222    1.7817411342   -0.1018797250
H        2.2443347132    1.3294139244   -0.9610036728
H        0.4653712391   -2.4742036290   -0.3764581414
H       -1.5907552978   -1.8872145573    0.6217163962
H       -2.3627093235    0.3229761402    1.1258508807
H       -1.2988404140    2.3394672015    0.7524234849
C        1.3143769104   -0.5159722949   -0.6461101137
H        2.1958814278   -0.9771005867   -1.0852415070
****
C        1.5314199521    0.2562226162   -0.6994727341
C       -0.2486783322   -1.2924854635    0.0279895950
C       -1.4837525277   -1.1759016125    0.6142339642
C       -1.7254334730    0.2179735994    0.8213100777
C       -0.6310879784    0.9027318449    0.3542539778
N        0.2776075752   -0.0200801288   -0.1340444381
H        2.0616369989   -0.6459241712   -1.0163551798
H        0.3112515763   -2.1592023569   -0.2937516649
H       -2.1442699156   -1.9938766489    0.8681421859
H       -2.6066874510    0.6633433528    1.2633376227
H       -0.4045494575    1.9578842873    0.3190208304
C        2.0713790673    1.4479513979   -0.8603087122
H        2.9911639655    1.8413632835   -1.2643555247
$end

$rem
method                b3lyp
basis                 6-31g(d)
unrestricted          true
symmetry              off
sym_ignore            true
incdft                false
incfock               0
scf_convergence       8
thresh                14
jobtype               fsm
scf_guess             core
scf_guess_mix         5
scf_algorithm         diis
max_scf_cycles        100
fsm_nnode             21
fsm_ngrad             6
fsm_mode              2
fsm_opt_mode          2
$end

--------------------------------------------------------------

   23    -286.9243460307      4.41E-09 Convergence criterion met
 Total energy in the final basis set = -286.92434603
   22    -286.8723895872      6.82E-09 Convergence criterion met
 Total energy in the final basis set = -286.87238959
   22    -286.9117867868      7.02E-09 Convergence criterion met
 Total energy in the final basis set = -286.91178679
   23    -286.9163358981      8.09E-09 Convergence criterion met
 Total energy in the final basis set = -286.91633590
   22    -286.8523412315      5.49E-09 Convergence criterion met
 Total energy in the final basis set = -286.85234123
   22    -286.8626872059      5.95E-09 Convergence criterion met
 Total energy in the final basis set = -286.86268721
   24    -286.8897058568      4.98E-09 Convergence criterion met
 Total energy in the final basis set = -286.88970586
   23    -286.8948211654      5.54E-09 Convergence criterion met
 Total energy in the final basis set = -286.70951369
   30    -286.7098697377      9.23E-09 Convergence criterion met
 Total energy in the final basis set = -286.70986974
   31    -286.7095611196      7.84E-09 Convergence criterion met
 Total energy in the final basis set = -286.70956112
   30    -286.7098233649      8.58E-09 Convergence criterion met
 Total energy in the final basis set = -286.70982336
   31    -286.7096146469      8.14E-09 Convergence criterion met
 Total energy in the final basis set = -286.70961465
   30    -286.7097712235      7.74E-09 Convergence criterion met
 Total energy in the final basis set = -286.70977122
   31    -286.7096652239      7.75E-09 Convergence criterion met
 Total energy in the final basis set = -286.70966522
   30    -286.7097220028      7.25E-09 Convergence criterion met
 Total energy in the final basis set = -286.70972200

                    Orbital Energies (a.u.)
 --------------------------------------------------------------

 Alpha MOs
 -- Occupied --
-14.360 -10.247 -10.231 -10.221 -10.209 -10.197 -10.193  -0.944
 -0.814  -0.760  -0.697  -0.633  -0.565  -0.531  -0.489  -0.471
 -0.423  -0.407  -0.401  -0.395  -0.316  -0.273  -0.248  -0.215
 -0.196

 Beta MOs
 -- Occupied --
-14.354 -10.249 -10.225 -10.222 -10.203 -10.199 -10.189  -0.935
 -0.808  -0.755  -0.684  -0.624  -0.560  -0.530  -0.486  -0.468
 -0.418  -0.399  -0.396  -0.386  -0.297  -0.257  -0.235  -0.209

          Ground-State Mulliken Net Atomic Charges

     Atom                 Charge (a.u.)    Spin (a.u.)
  --------------------------------------------------------
      1 C                     0.005117      -0.075012
      2 C                    -0.120284       0.414233
      3 C                    -0.147028      -0.182565
      4 C                    -0.125846       0.448629
      5 C                     0.066618      -0.174784
      6 N                    -0.326624       0.296601
      7 H                     0.141129      -0.001978
      8 H                     0.153513      -0.017496
      9 H                     0.143673       0.006765
     10 H                     0.149760      -0.021636
     11 H                     0.145850       0.006168
     12 C                    -0.206922       0.317493
     13 H                     0.121044      -0.016418
  --------------------------------------------------------
  Sum of atomic charges =    -0.000000

                    Cartesian Multipole Moments
 -----------------------------------------------------------------
    Charge (ESU x 10^10)
                 0.0000
    Dipole Moment (Debye)
         X      -1.3663      Y       1.0552      Z       0.6272
       Tot       1.8367
    Quadrupole Moments (Debye-Ang)
        XX     -37.2550     XY       1.3772     YY     -37.0165
        XZ      -3.4841     YZ      -0.2460     ZZ     -42.0182

             Standard Nuclear Orientation (Angstroms)
    I     Atom           X                Y                Z
 ----------------------------------------------------------------
    1      C       1.3741838279     0.6746027782    -0.6999838091
    2      C       0.1918183692    -1.1266195425    -0.0801984832
    3      C      -1.0612641464    -1.0100917319     0.4828706694
    4      C      -1.6607870448     0.2302879281     0.8200295328
    5      C      -0.8607983180     1.3160994385     0.4320227296
    6      N       0.1432445501     0.9117241897    -0.2893267737
    7      H       2.0481946600     1.4576256560    -1.0468862701
    8      H       0.5861609541    -2.1151193975    -0.2527161817
    9      H      -1.6209189134    -1.9270354420     0.6819493767
   10      H      -2.6528341376     0.3622501212     1.2494743836
   11      H      -1.1083157955     2.3515600204     0.6830028911
   12      C       1.7571038603    -0.6120013346    -0.8465980763
   13      H       2.8001483764    -0.7804387207    -1.2166110083
 ----------------------------------------------------------------

 Total job time:  3165.98s(wall), 6489.39s(cpu)
        *  Thank you very much for using Q-Chem.  Have a nice day.  *
