 Q-Chem 5.0, Q-Chem, Inc., Pleasanton, CA (2017)
 Q-Chem 5.0.2 for Intel X86 EM64T Linux

User input:
--------------------------------------------------------------
$molecule
0 2
C        1.3718026024    0.6853394123   -0.7608391071
C       -0.1031322988   -0.9196866531   -0.4398447072
C       -1.0435819050   -1.0966359743    0.5954594676
C       -1.4951384079    0.1914185948    0.9912954396
C       -0.8614620660    1.1351759910    0.2083199795
N       -0.0518658371    0.4933807423   -0.7279842661
H        1.8077787828    1.6120568235   -1.1253694115
H        0.0523217485   -1.6155700763   -1.2560471783
H       -1.3985190450   -2.0468836982    0.9709619945
H       -2.2338394587    0.4042508700    1.7537145063
H       -0.8788222076    2.2143914135    0.2698709923
C        1.8833508370   -0.4556504244   -0.3063419341
H        2.8870434975   -0.8687430582   -0.2561667947
$end

$rem
method                b3lyp
basis                 6-31+g(d,p)
unrestricted          true
symmetry              off
sym_ignore            true
incdft                false
incfock               0
scf_convergence       8
thresh                14
jobtype               rpath
scf_guess             core
scf_guess_mix         5
scf_algorithm         diis
max_scf_cycles        100
rpath_direction       1
rpath_tol_displacement 1000
rpath_max_cycles      50
geom_opt_max_cycles   300
geom_opt_hessian      read
$end

--------------------------------------------------------------

   22    -286.8545212246      9.78E-09 Convergence criterion met
 Total energy in the final basis set = -286.85452122
   22    -286.8558709164      7.11E-09 Convergence criterion met
 Total energy in the final basis set = -286.85587092
   22    -286.8557869682      7.89E-09 Convergence criterion met
 Total energy in the final basis set = -286.85578697
   22    -286.8558729095      6.03E-09 Convergence criterion met
 Total energy in the final basis set = -286.85587291
   22    -286.8595737684      3.67E-09 Convergence criterion met
 Total energy in the final basis set = -286.85957377
   22    -286.8595402284      4.92E-09 Convergence criterion met
 Total energy in the final basis set = -286.85954023
   22    -286.8595825922      2.43E-09 Convergence criterion met
 Total energy in the final basis set = -286.85958259
   23    -286.8643743708      5.40E-09 Convergence criterion met
 Total energy in the final basis set = -286.89181097
   22    -286.8888139658      7.74E-09 Convergence criterion met
 Total energy in the final basis set = -286.88881397
   22    -286.8918676515      3.41E-09 Convergence criterion met
 Total energy in the final basis set = -286.89186765
   21    -286.8918572578      9.76E-09 Convergence criterion met
 Total energy in the final basis set = -286.89185726
   22    -286.8918827050      3.17E-09 Convergence criterion met
 Total energy in the final basis set = -286.89188271
   23    -286.8922796029      5.13E-09 Convergence criterion met
 Total energy in the final basis set = -286.89227960
   21    -286.8902569292      6.35E-09 Convergence criterion met
 Total energy in the final basis set = -286.89025693
   22    -286.8924586235      3.16E-09 Convergence criterion met
 Total energy in the final basis set = -286.89245862

                    Orbital Energies (a.u.)
 --------------------------------------------------------------

 Alpha MOs
 -- Occupied --
-14.400 -10.253 -10.229 -10.216 -10.212 -10.183 -10.182  -0.997
 -0.826  -0.747  -0.729  -0.625  -0.582  -0.553  -0.524  -0.494
 -0.442  -0.429  -0.414  -0.394  -0.383  -0.311  -0.264  -0.240
 -0.222

 Beta MOs
 -- Occupied --
-14.399 -10.255 -10.216 -10.213 -10.212 -10.183 -10.182  -0.996
 -0.821  -0.735  -0.726  -0.612  -0.580  -0.551  -0.513  -0.485
 -0.439  -0.428  -0.413  -0.393  -0.383  -0.307  -0.233  -0.224

          Ground-State Mulliken Net Atomic Charges

     Atom                 Charge (a.u.)    Spin (a.u.)
  --------------------------------------------------------
      1 C                    -0.097140      -0.263799
      2 C                    -0.245607       0.004893
      3 C                    -0.079909      -0.006774
      4 C                    -0.133363       0.009861
      5 C                    -0.133703      -0.013336
      6 N                    -0.004802       0.029670
      7 H                     0.147279       0.062509
      8 H                     0.144306      -0.000687
      9 H                     0.126038       0.000681
     10 H                     0.125346       0.000286
     11 H                     0.133189       0.000033
     12 C                    -0.143783       1.177970
     13 H                     0.162149      -0.001308
  --------------------------------------------------------
  Sum of atomic charges =     0.000000

                    Cartesian Multipole Moments
 -----------------------------------------------------------------
    Charge (ESU x 10^10)
                 0.0000
    Dipole Moment (Debye)
         X       1.1931      Y       0.8960      Z      -0.4793
       Tot       1.5672
    Quadrupole Moments (Debye-Ang)
        XX     -38.2758     XY       1.4698     YY     -38.0019
        XZ      -3.9189     YZ       0.1131     ZZ     -44.3355

             Standard Nuclear Orientation (Angstroms)
    I     Atom           X                Y                Z
 ----------------------------------------------------------------
    1      C       1.3718026024     0.6853394123    -0.7608391071
    2      C      -0.1031322988    -0.9196866531    -0.4398447072
    3      C      -1.0435819050    -1.0966359743     0.5954594676
    4      C      -1.4951384079     0.1914185948     0.9912954396
    5      C      -0.8614620660     1.1351759910     0.2083199795
    6      N      -0.0518658371     0.4933807423    -0.7279842661
    7      H       1.8077787828     1.6120568235    -1.1253694115
    8      H       0.0523217485    -1.6155700763    -1.2560471783
    9      H      -1.3985190450    -2.0468836982     0.9709619945
   10      H      -2.2338394587     0.4042508700     1.7537145063
   11      H      -0.8788222076     2.2143914135     0.2698709923
   12      C       1.8833508370    -0.4556504244    -0.3063419341
   13      H       2.8870434975    -0.8687430582    -0.2561667947
 ----------------------------------------------------------------

 Total job time:  13399.03s(wall), 37740.61s(cpu)
        *  Thank you very much for using Q-Chem.  Have a nice day.  *
