 Q-Chem 5.0, Q-Chem, Inc., Pleasanton, CA (2017)
 Q-Chem 5.0.2 for Intel X86 EM64T Linux

User input:
--------------------------------------------------------------
$molecule
0 2
C        1.4394457306    0.5646817582   -0.7302115419
C       -0.3410526770   -1.0876079090   -0.2817722067
C       -1.4627558793   -1.1008220908    0.5087814090
C       -1.7032907424    0.2478389378    0.9323122281
C       -0.7239384762    1.0362909139    0.3759232468
N        0.1168036679    0.2193391227   -0.3658001559
H        1.5612461904    1.5903536999   -1.0914274729
H        0.1701903128   -1.8692263339   -0.8205980739
H       -2.0528204976   -1.9719087103    0.7521425287
H       -2.5030007055    0.5894694162    1.5775847811
H       -0.5296098056    2.0938244873    0.4609624860
C        2.4494455775   -0.2742967757   -0.6196516846
H        3.5152735450   -0.3050925565   -0.7812165637
$end

$rem
method                b3lyp
basis                 6-31+g(d,p)
unrestricted          true
symmetry              off
sym_ignore            true
incdft                false
incfock               0
scf_convergence       8
thresh                14
jobtype               opt
scf_guess             read
scf_algorithm         diis
max_scf_cycles        100
geom_opt_max_cycles   300
$end

--------------------------------------------------------------

    2    -286.8924586236      2.42E-09 Convergence criterion met
 Total energy in the final basis set = -286.89245862
   14    -286.8943557729      9.79E-09 Convergence criterion met
 Total energy in the final basis set = -286.89435577
   15    -286.8956814077      2.99E-09 Convergence criterion met
 Total energy in the final basis set = -286.89568141
   15    -286.8965258784      2.18E-09 Convergence criterion met
 Total energy in the final basis set = -286.89652588
   14    -286.8969690738      9.81E-09 Convergence criterion met
 Total energy in the final basis set = -286.89696907
   13    -286.8971038317      9.84E-09 Convergence criterion met
 Total energy in the final basis set = -286.89710383
   13    -286.8971307167      2.60E-09 Convergence criterion met
 Total energy in the final basis set = -286.89713072
   13    -286.8971419138      2.18E-09 Convergence criterion met
 Total energy in the final basis set = -286.89714191
   11    -286.8971465980      6.70E-09 Convergence criterion met
 Total energy in the final basis set = -286.89714660

             Standard Nuclear Orientation (Angstroms)
    I     Atom           X                Y                Z
 ----------------------------------------------------------------
    1      C       1.5089469876     0.5264426998    -0.5644464285
    2      C      -0.2587176963    -1.1500885539    -0.0371626633
    3      C      -1.5270740331    -1.0892459875     0.4919125114
    4      C      -1.8120731166     0.2839024393     0.7746295240
    5      C      -0.7068161218     1.0139151166     0.4071600638
    6      N       0.2465923148     0.1377372550    -0.0906399731
    7      H       1.6738945318     1.6052558048    -0.5058379021
    8      H       0.3329459755    -1.9843518749    -0.3819225966
    9      H      -2.1808456474    -1.9338519854     0.6596645914
   10      H      -2.7224623977     0.6844828363     1.1978461700
   11      H      -0.5070288880     2.0745722371     0.4521578564
   12      C       2.4465404128    -0.2697510572    -1.0425989177
   13      H       3.4420339191    -0.1661749702    -1.4437332556
 ----------------------------------------------------------------

   11    -286.8971473790      5.61E-09 Convergence criterion met
 Total energy in the final basis set = -286.89714738
 Final energy is   -286.897147378953
 **  OPTIMIZATION CONVERGED  **

                    Orbital Energies (a.u.)
 --------------------------------------------------------------

 Alpha MOs
 -- Occupied --
-14.405 -10.254 -10.227 -10.218 -10.214 -10.184 -10.183  -1.001
 -0.829  -0.749  -0.732  -0.629  -0.585  -0.554  -0.523  -0.485
 -0.439  -0.436  -0.427  -0.396  -0.385  -0.316  -0.265  -0.237
 -0.224

 Beta MOs
 -- Occupied --
-14.404 -10.256 -10.218 -10.214 -10.212 -10.184 -10.183  -1.000
 -0.824  -0.737  -0.729  -0.617  -0.584  -0.553  -0.510  -0.476
 -0.436  -0.436  -0.425  -0.395  -0.385  -0.313  -0.229  -0.224

          Ground-State Mulliken Net Atomic Charges

     Atom                 Charge (a.u.)    Spin (a.u.)
  --------------------------------------------------------
      1 C                     0.038186      -0.355884
      2 C                    -0.267789       0.017025
      3 C                    -0.059201      -0.018258
      4 C                    -0.088003      -0.016726
      5 C                    -0.194447      -0.016150
      6 N                     0.026215       0.020678
      7 H                     0.142793       0.068459
      8 H                     0.146294      -0.001107
      9 H                     0.125654       0.000993
     10 H                     0.125967       0.000994
     11 H                     0.132632       0.000056
     12 C                    -0.288639       1.300858
     13 H                     0.160336      -0.000938
  --------------------------------------------------------
  Sum of atomic charges =     0.000000

                    Cartesian Multipole Moments
 -----------------------------------------------------------------
    Charge (ESU x 10^10)
                 0.0000
    Dipole Moment (Debye)
         X       1.0309      Y       1.0187      Z      -0.3106
       Tot       1.4823
    Quadrupole Moments (Debye-Ang)
        XX     -38.0376     XY       1.8370     YY     -37.7030
        XZ      -3.5519     YZ       0.3701     ZZ     -45.6173

 Total job time:  245.33s(wall), 753.73s(cpu)
        *  Thank you very much for using Q-Chem.  Have a nice day.  *
