 Q-Chem 5.0, Q-Chem, Inc., Pleasanton, CA (2017)
 Q-Chem 5.0.2 for Intel X86 EM64T Linux

User input:
--------------------------------------------------------------
$molecule
0 2
C        1.3374088556    0.8630327542   -0.5692167788
C        0.2717232502   -1.4149392997   -0.2190670591
C       -0.9148941645   -1.0760410417    0.3592297020
C       -1.3808469394    0.2523161617    0.6636972589
C       -0.7390608738    1.4560185790    0.4365928386
N        0.4570638263    1.7816787336   -0.1031862444
H        2.2450018753    1.3291826855   -0.9589944881
H        0.4654123397   -2.4734959299   -0.3795090058
H       -1.5903632012   -1.8875257230    0.6227485735
H       -2.3618319473    0.3238665003    1.1270289569
H       -1.2999171019    2.3394086893    0.7502820903
C        1.3143766211   -0.5156861831   -0.6458662843
H        2.1959274605   -0.9778159267   -1.0837395593
$end

$rem
method                b3lyp
basis                 6-31g(d)
unrestricted          true
symmetry              off
sym_ignore            true
incdft                false
incfock               0
scf_convergence       8
thresh                14
jobtype               opt
scf_guess             core
scf_guess_mix         5
scf_algorithm         diis
max_scf_cycles        100
geom_opt_max_cycles   300
$end

--------------------------------------------------------------

   23    -286.9243440152      4.10E-09 Convergence criterion met
 Total energy in the final basis set = -286.92434402
   18    -286.9243454414      2.92E-09 Convergence criterion met
 Total energy in the final basis set = -286.92434544

             Standard Nuclear Orientation (Angstroms)
    I     Atom           X                Y                Z
 ----------------------------------------------------------------
    1      C       1.3377229558     0.8633036749    -0.5689202540
    2      C       0.2724920303    -1.4150735814    -0.2177472916
    3      C      -0.9149507936    -1.0758508718     0.3588085212
    4      C      -1.3818425014     0.2524025871     0.6619370436
    5      C      -0.7392129679     1.4561108584     0.4366243794
    6      N       0.4581320222     1.7817411342    -0.1018797250
    7      H       2.2443347132     1.3294139244    -0.9610036728
    8      H       0.4653712391    -2.4742036290    -0.3764581414
    9      H      -1.5907552978    -1.8872145573     0.6217163962
   10      H      -2.3627093235     0.3229761402     1.1258508807
   11      H      -1.2988404140     2.3394672015     0.7524234849
   12      C       1.3143769104    -0.5159722949    -0.6461101137
   13      H       2.1958814278    -0.9771005867    -1.0852415070
 ----------------------------------------------------------------

   18    -286.9243460307      2.95E-09 Convergence criterion met
 Total energy in the final basis set = -286.92434603
 Final energy is   -286.924346030669
 **  OPTIMIZATION CONVERGED  **

                    Orbital Energies (a.u.)
 --------------------------------------------------------------

 Alpha MOs
 -- Occupied --
-14.322 -10.232 -10.232 -10.212 -10.211 -10.201 -10.200  -0.922
 -0.818  -0.784  -0.693  -0.667  -0.551  -0.537  -0.518  -0.449
 -0.439  -0.414  -0.394  -0.387  -0.349  -0.322  -0.299  -0.251
 -0.162

 Beta MOs
 -- Occupied --
-14.314 -10.234 -10.233 -10.210 -10.210 -10.196 -10.196  -0.911
 -0.809  -0.777  -0.681  -0.665  -0.546  -0.535  -0.514  -0.447
 -0.438  -0.411  -0.383  -0.373  -0.348  -0.295  -0.276  -0.241

          Ground-State Mulliken Net Atomic Charges

     Atom                 Charge (a.u.)    Spin (a.u.)
  --------------------------------------------------------
      1 C                     0.034624      -0.109844
      2 C                    -0.111955       0.099717
      3 C                    -0.110619       0.087741
      4 C                    -0.132012       0.351628
      5 C                     0.036148      -0.115398
      6 N                    -0.423203       0.386952
      7 H                     0.142708       0.003265
      8 H                     0.141893      -0.006923
      9 H                     0.141971      -0.006349
     10 H                     0.134287      -0.018548
     11 H                     0.142583       0.003539
     12 C                    -0.130849       0.342340
     13 H                     0.134424      -0.018119
  --------------------------------------------------------
  Sum of atomic charges =    -0.000000

                    Cartesian Multipole Moments
 -----------------------------------------------------------------
    Charge (ESU x 10^10)
                -0.0000
    Dipole Moment (Debye)
         X      -0.5584      Y      -2.1689      Z       0.1249
       Tot       2.2431
    Quadrupole Moments (Debye-Ang)
        XX     -36.3968     XY      -1.7225     YY     -41.8619
        XZ      -3.3552     YZ       0.9055     ZZ     -41.7398

 Total job time:  115.10s(wall), 177.68s(cpu)
        *  Thank you very much for using Q-Chem.  Have a nice day.  *
