 Q-Chem 5.0, Q-Chem, Inc., Pleasanton, CA (2017)
 Q-Chem 5.0.2 for Intel X86 EM64T Linux

User input:
--------------------------------------------------------------
$molecule
0 2
C        1.5315314933    0.2559102732   -0.6997034488
C       -0.2489688964   -1.2924905509    0.0275103171
C       -1.4833900242   -1.1759607653    0.6152700601
C       -1.7252016290    0.2180451142    0.8215104983
C       -0.6315330577    0.9026755662    0.3526022193
N        0.2772684087   -0.0202252077   -0.1352001332
H        2.0613239360   -0.6462602523   -1.0171283467
H        0.3108701829   -2.1589569490   -0.2948535445
H       -2.1438457391   -1.9937896763    0.8697808501
H       -2.6060684652    0.6634234345    1.2643720287
H       -0.4055536092    1.9578996987    0.3169601894
C        2.0719715321    1.4477271091   -0.8587092334
H        2.9915958678    1.8420022058   -1.2624114565
$end

$rem
method                b3lyp
basis                 6-31g(d)
unrestricted          true
symmetry              off
sym_ignore            true
incdft                false
incfock               0
scf_convergence       8
thresh                14
jobtype               opt
scf_guess             core
scf_guess_mix         5
scf_algorithm         diis
max_scf_cycles        100
geom_opt_max_cycles   300
$end

--------------------------------------------------------------

   22    -286.8723891328      6.08E-09 Convergence criterion met
 Total energy in the final basis set = -286.87238913

             Standard Nuclear Orientation (Angstroms)
    I     Atom           X                Y                Z
 ----------------------------------------------------------------
    1      C       1.5314199521     0.2562226162    -0.6994727341
    2      C      -0.2486783322    -1.2924854635     0.0279895950
    3      C      -1.4837525277    -1.1759016125     0.6142339642
    4      C      -1.7254334730     0.2179735994     0.8213100777
    5      C      -0.6310879784     0.9027318449     0.3542539778
    6      N       0.2776075752    -0.0200801288    -0.1340444381
    7      H       2.0616369989    -0.6459241712    -1.0163551798
    8      H       0.3112515763    -2.1592023569    -0.2937516649
    9      H      -2.1442699156    -1.9938766489     0.8681421859
   10      H      -2.6066874510     0.6633433528     1.2633376227
   11      H      -0.4045494575     1.9578842873     0.3190208304
   12      C       2.0713790673     1.4479513979    -0.8603087122
   13      H       2.9911639655     1.8413632835    -1.2643555247
 ----------------------------------------------------------------

   16    -286.8723898068      3.06E-09 Convergence criterion met
 Total energy in the final basis set = -286.87238981
 Final energy is   -286.872389806756
 **  OPTIMIZATION CONVERGED  **

                    Orbital Energies (a.u.)
 --------------------------------------------------------------

 Alpha MOs
 -- Occupied --
-14.392 -10.242 -10.214 -10.205 -10.201 -10.171 -10.170  -0.988
 -0.817  -0.737  -0.720  -0.618  -0.574  -0.544  -0.513  -0.476
 -0.428  -0.423  -0.417  -0.386  -0.374  -0.303  -0.255  -0.224
 -0.210

 Beta MOs
 -- Occupied --
-14.391 -10.243 -10.205 -10.201 -10.198 -10.171 -10.170  -0.987
 -0.812  -0.725  -0.717  -0.605  -0.573  -0.543  -0.500  -0.466
 -0.424  -0.424  -0.414  -0.385  -0.374  -0.301  -0.216  -0.211

          Ground-State Mulliken Net Atomic Charges

     Atom                 Charge (a.u.)    Spin (a.u.)
  --------------------------------------------------------
      1 C                     0.068170      -0.140510
      2 C                     0.027536      -0.002604
      3 C                    -0.193456      -0.005406
      4 C                    -0.186592      -0.008647
      5 C                     0.037285       0.008939
      6 N                    -0.401179       0.019483
      7 H                     0.163169       0.068826
      8 H                     0.144882       0.000096
      9 H                     0.128615       0.001019
     10 H                     0.128861       0.000825
     11 H                     0.154925       0.000530
     12 C                    -0.244475       1.062446
     13 H                     0.172260      -0.004998
  --------------------------------------------------------
  Sum of atomic charges =     0.000000

                    Cartesian Multipole Moments
 -----------------------------------------------------------------
    Charge (ESU x 10^10)
                -0.0000
    Dipole Moment (Debye)
         X       1.2532      Y      -0.3423      Z      -0.6190
       Tot       1.4391
    Quadrupole Moments (Debye-Ang)
        XX     -36.3403     XY      -0.1634     YY     -37.2231
        XZ      -4.0194     YZ       0.5977     ZZ     -42.9510

 Total job time:  83.77s(wall), 113.31s(cpu)
        *  Thank you very much for using Q-Chem.  Have a nice day.  *
