 Q-Chem 5.0, Q-Chem, Inc., Pleasanton, CA (2017)
 Q-Chem 5.0.2 for Intel X86 EM64T Linux

User input:
--------------------------------------------------------------
$molecule
0 2
C        1.3739565980    0.6816414054   -0.7582440069
C       -0.1036549007   -0.9196312082   -0.4353474902
C       -1.0448833464   -1.0955888954    0.5962483288
C       -1.4961728969    0.1918454279    0.9909642047
C       -0.8608294512    1.1324022267    0.2097780239
N       -0.0513418268    0.4919396068   -0.7261443168
H        1.8048826430    1.6094277272   -1.1285132546
H        0.0506380389   -1.6149275650   -1.2528216090
H       -1.4055055618   -2.0458360895    0.9677364295
H       -2.2387577256    0.4046726716    1.7504512201
H       -0.8738536990    2.2122378299    0.2718808218
C        1.8860208148   -0.4561075567   -0.3039169347
H        2.8954375558   -0.8592316177   -0.2650424359
$end

$rem
method                b3lyp
basis                 6-31+g(d,p)
unrestricted          true
symmetry              off
sym_ignore            true
incdft                false
incfock               0
scf_convergence       8
thresh                14
jobtype               ts
scf_guess             read
scf_algorithm         diis
max_scf_cycles        100
geom_opt_max_cycles   500
geom_opt_dmax         100
geom_opt_tol_gradient 10
geom_opt_hessian      read
$end

--------------------------------------------------------------

    2    -286.8544814636      2.18E-10 Convergence criterion met
 Total energy in the final basis set = -286.85448146
   13    -286.8545212180      7.52E-09 Convergence criterion met
 Total energy in the final basis set = -286.85452122

             Standard Nuclear Orientation (Angstroms)
    I     Atom           X                Y                Z
 ----------------------------------------------------------------
    1      C       1.3718026024     0.6853394123    -0.7608391071
    2      C      -0.1031322988    -0.9196866531    -0.4398447072
    3      C      -1.0435819050    -1.0966359743     0.5954594676
    4      C      -1.4951384079     0.1914185948     0.9912954396
    5      C      -0.8614620660     1.1351759910     0.2083199795
    6      N      -0.0518658371     0.4933807423    -0.7279842661
    7      H       1.8077787828     1.6120568235    -1.1253694115
    8      H       0.0523217485    -1.6155700763    -1.2560471783
    9      H      -1.3985190450    -2.0468836982     0.9709619945
   10      H      -2.2338394587     0.4042508700     1.7537145063
   11      H      -0.8788222076     2.2143914135     0.2698709923
   12      C       1.8833508370    -0.4556504244    -0.3063419341
   13      H       2.8870434975    -0.8687430582    -0.2561667947
 ----------------------------------------------------------------

    8    -286.8545212248      6.18E-09 Convergence criterion met
 Total energy in the final basis set = -286.85452122
 Final energy is   -286.854521224810
 **  OPTIMIZATION CONVERGED  **

                    Orbital Energies (a.u.)
 --------------------------------------------------------------

 Alpha MOs
 -- Occupied --
-14.380 -10.238 -10.231 -10.230 -10.202 -10.200 -10.198  -0.996
 -0.820  -0.751  -0.709  -0.611  -0.582  -0.554  -0.517  -0.491
 -0.435  -0.420  -0.410  -0.399  -0.368  -0.305  -0.285  -0.247
 -0.171

 Beta MOs
 -- Occupied --
-14.378 -10.240 -10.232 -10.226 -10.201 -10.193 -10.192  -0.991
 -0.814  -0.743  -0.704  -0.601  -0.577  -0.549  -0.512  -0.484
 -0.427  -0.417  -0.408  -0.396  -0.361  -0.294  -0.259  -0.234

          Ground-State Mulliken Net Atomic Charges

     Atom                 Charge (a.u.)    Spin (a.u.)
  --------------------------------------------------------
      1 C                    -0.133932      -0.094690
      2 C                    -0.332360      -0.166578
      3 C                    -0.022976       0.381969
      4 C                    -0.109357      -0.124503
      5 C                    -0.042132       0.314546
      6 N                    -0.054793       0.045284
      7 H                     0.135976       0.016044
      8 H                     0.163382       0.023393
      9 H                     0.131393      -0.017452
     10 H                     0.131780       0.002400
     11 H                     0.139169      -0.014158
     12 C                    -0.135354       0.611056
     13 H                     0.129203       0.022687
  --------------------------------------------------------
  Sum of atomic charges =     0.000000

                    Cartesian Multipole Moments
 -----------------------------------------------------------------
    Charge (ESU x 10^10)
                -0.0000
    Dipole Moment (Debye)
         X      -0.1028      Y       0.3925      Z       0.0570
       Tot       0.4097
    Quadrupole Moments (Debye-Ang)
        XX     -40.7840     XY       0.6368     YY     -36.9792
        XZ      -3.5409     YZ       0.3713     ZZ     -43.5099

 Total job time:  72.66s(wall), 171.65s(cpu)
        *  Thank you very much for using Q-Chem.  Have a nice day.  *
