 Q-Chem 5.0, Q-Chem, Inc., Pleasanton, CA (2017)
 Q-Chem 5.0.2 for Intel X86 EM64T Linux

User input:
--------------------------------------------------------------
$molecule
0 2
C        1.3739565980    0.6816414054   -0.7582440069
C       -0.1036549007   -0.9196312082   -0.4353474902
C       -1.0448833464   -1.0955888954    0.5962483288
C       -1.4961728969    0.1918454279    0.9909642047
C       -0.8608294512    1.1324022267    0.2097780239
N       -0.0513418268    0.4919396068   -0.7261443168
H        1.8048826430    1.6094277272   -1.1285132546
H        0.0506380389   -1.6149275650   -1.2528216090
H       -1.4055055618   -2.0458360895    0.9677364295
H       -2.2387577256    0.4046726716    1.7504512201
H       -0.8738536990    2.2122378299    0.2718808218
C        1.8860208148   -0.4561075567   -0.3039169347
H        2.8954375558   -0.8592316177   -0.2650424359
$end

$rem
method                b3lyp
basis                 6-31g(d)
unrestricted          true
symmetry              off
sym_ignore            true
incdft                false
incfock               0
scf_convergence       6
thresh                14
jobtype               sp
scf_guess             read
scf_algorithm         diis
max_scf_cycles        100
stability_analysis    true
max_cis_cycles        100
cis_n_roots           4
$end

--------------------------------------------------------------

             Standard Nuclear Orientation (Angstroms)
    I     Atom           X                Y                Z
 ----------------------------------------------------------------
    1      C       1.3739565980     0.6816414054    -0.7582440069
    2      C      -0.1036549007    -0.9196312082    -0.4353474902
    3      C      -1.0448833464    -1.0955888954     0.5962483288
    4      C      -1.4961728969     0.1918454279     0.9909642047
    5      C      -0.8608294512     1.1324022267     0.2097780239
    6      N      -0.0513418268     0.4919396068    -0.7261443168
    7      H       1.8048826430     1.6094277272    -1.1285132546
    8      H       0.0506380389    -1.6149275650    -1.2528216090
    9      H      -1.4055055618    -2.0458360895     0.9677364295
   10      H      -2.2387577256     0.4046726716     1.7504512201
   11      H      -0.8738536990     2.2122378299     0.2718808218
   12      C       1.8860208148    -0.4561075567    -0.3039169347
   13      H       2.8954375558    -0.8592316177    -0.2650424359
 ----------------------------------------------------------------

    2    -286.8304028237      2.11E-09 Convergence criterion met
 Total energy in the final basis set = -286.83040282

         TDDFT/TDA Excitation Energies
 ---------------------------------------------------

 Excited state   1: excitation energy (eV) =    2.8032
 Total energy for state  1:                  -286.72738608 au
    <S**2>     :  0.7981
    Trans. Mom.:  0.2088 X   0.1326 Y  -0.0892 Z
    Strength   :     0.0047479272
    S(  1) --> V(  1) amplitude = -0.1747 alpha
    S(  1) --> V(  2) amplitude = -0.1502 alpha
    D( 24) --> S(  1) amplitude =  0.9491 beta

 Excited state   2: excitation energy (eV) =    3.0152
 Total energy for state  2:                  -286.71959674 au
    <S**2>     :  0.8486
    Trans. Mom.:  0.0187 X  -0.0869 Y   0.0118 Z
    Strength   :     0.0005935987
    S(  1) --> V(  1) amplitude =  0.8593 alpha
    D( 23) --> S(  1) amplitude =  0.4504 beta
    D( 24) --> S(  1) amplitude =  0.1555 beta

 Excited state   3: excitation energy (eV) =    3.6447
 Total energy for state  3:                  -286.69646403 au
    <S**2>     :  0.8174
    Trans. Mom.: -0.0868 X   0.1237 Y   0.1025 Z
    Strength   :     0.0029789043
    S(  1) --> V(  1) amplitude = -0.1643 alpha
    S(  1) --> V(  2) amplitude =  0.8698 alpha
    D( 23) --> S(  1) amplitude =  0.3773 beta

 Excited state   4: excitation energy (eV) =    4.1338
 Total energy for state  4:                  -286.67848786 au
    <S**2>     :  0.9492
    Trans. Mom.: -0.7930 X   0.2694 Y   0.1772 Z
    Strength   :     0.0742265876
    D( 24) --> V(  1) amplitude =  0.2479 alpha
    D( 24) --> V(  2) amplitude = -0.1938 alpha
    S(  1) --> V(  1) amplitude = -0.3490 alpha
    S(  1) --> V(  2) amplitude = -0.3425 alpha
    S(  1) --> V(  3) amplitude = -0.2023 alpha
    D( 22) --> S(  1) amplitude = -0.2030 beta
    D( 23) --> S(  1) amplitude =  0.6899 beta
    D( 23) --> V(  1) amplitude =  0.1696 beta

 ---------------------------------------------------

                    Orbital Energies (a.u.)
 --------------------------------------------------------------

 Alpha MOs
 -- Occupied --
-14.366 -10.226 -10.218 -10.217 -10.188 -10.188 -10.186  -0.983
 -0.808  -0.739  -0.698  -0.600  -0.571  -0.544  -0.507  -0.481
 -0.423  -0.410  -0.401  -0.389  -0.357  -0.292  -0.274  -0.234
 -0.159

 Beta MOs
 -- Occupied --
-14.364 -10.228 -10.218 -10.214 -10.189 -10.181 -10.178  -0.978
 -0.801  -0.731  -0.693  -0.590  -0.567  -0.540  -0.502  -0.474
 -0.416  -0.406  -0.398  -0.386  -0.350  -0.281  -0.246  -0.221

          Ground-State Mulliken Net Atomic Charges

     Atom                 Charge (a.u.)    Spin (a.u.)
  --------------------------------------------------------
      1 C                     0.015957      -0.084346
      2 C                    -0.013852      -0.156460
      3 C                    -0.148659       0.360175
      4 C                    -0.143283      -0.094795
      5 C                     0.017107       0.274470
      6 N                    -0.379479       0.068173
      7 H                     0.142596       0.018171
      8 H                     0.176413       0.021693
      9 H                     0.136896      -0.017362
     10 H                     0.137121       0.002201
     11 H                     0.150266      -0.014133
     12 C                    -0.224952       0.597523
     13 H                     0.133870       0.024692
  --------------------------------------------------------
  Sum of atomic charges =     0.000000

                    Cartesian Multipole Moments
 -----------------------------------------------------------------
    Charge (ESU x 10^10)
                 0.0000
    Dipole Moment (Debye)
         X      -0.1269      Y       0.4270      Z       0.0445
       Tot       0.4477
    Quadrupole Moments (Debye-Ang)
        XX     -39.1692     XY       0.6420     YY     -35.9940
        XZ      -3.1412     YZ       0.4075     ZZ     -41.7387

 Total job time:  94.90s(wall), 82.64s(cpu)
        *  Thank you very much for using Q-Chem.  Have a nice day.  *
