 Q-Chem 5.0, Q-Chem, Inc., Pleasanton, CA (2017)
 Q-Chem 5.0.2 for Intel X86 EM64T Linux

User input:
--------------------------------------------------------------
$molecule
0 2
C        1.3718026024    0.6853394123   -0.7608391071
C       -0.1031322988   -0.9196866531   -0.4398447072
C       -1.0435819050   -1.0966359743    0.5954594676
C       -1.4951384079    0.1914185948    0.9912954396
C       -0.8614620660    1.1351759910    0.2083199795
N       -0.0518658371    0.4933807423   -0.7279842661
H        1.8077787828    1.6120568235   -1.1253694115
H        0.0523217485   -1.6155700763   -1.2560471783
H       -1.3985190450   -2.0468836982    0.9709619945
H       -2.2338394587    0.4042508700    1.7537145063
H       -0.8788222076    2.2143914135    0.2698709923
C        1.8833508370   -0.4556504244   -0.3063419341
H        2.8870434975   -0.8687430582   -0.2561667947
$end

$rem
method                b3lyp
basis                 6-31+g(d,p)
unrestricted          true
symmetry              off
sym_ignore            true
incdft                false
incfock               0
scf_convergence       8
thresh                14
jobtype               freq
scf_guess             read
scf_algorithm         diis
max_scf_cycles        100
$end

--------------------------------------------------------------

             Standard Nuclear Orientation (Angstroms)
    I     Atom           X                Y                Z
 ----------------------------------------------------------------
    1      C       1.3718026024     0.6853394123    -0.7608391071
    2      C      -0.1031322988    -0.9196866531    -0.4398447072
    3      C      -1.0435819050    -1.0966359743     0.5954594676
    4      C      -1.4951384079     0.1914185948     0.9912954396
    5      C      -0.8614620660     1.1351759910     0.2083199795
    6      N      -0.0518658371     0.4933807423    -0.7279842661
    7      H       1.8077787828     1.6120568235    -1.1253694115
    8      H       0.0523217485    -1.6155700763    -1.2560471783
    9      H      -1.3985190450    -2.0468836982     0.9709619945
   10      H      -2.2338394587     0.4042508700     1.7537145063
   11      H      -0.8788222076     2.2143914135     0.2698709923
   12      C       1.8833508370    -0.4556504244    -0.3063419341
   13      H       2.8870434975    -0.8687430582    -0.2561667947
 ----------------------------------------------------------------

    2    -286.8545212249      8.44E-10 Convergence criterion met
 Total energy in the final basis set = -286.85452122

                    Orbital Energies (a.u.)
 --------------------------------------------------------------

 Alpha MOs
 -- Occupied --
-14.380 -10.238 -10.231 -10.230 -10.202 -10.200 -10.198  -0.996
 -0.820  -0.751  -0.709  -0.611  -0.582  -0.554  -0.517  -0.491
 -0.435  -0.420  -0.410  -0.399  -0.368  -0.305  -0.285  -0.247
 -0.171

 Beta MOs
 -- Occupied --
-14.378 -10.240 -10.232 -10.226 -10.201 -10.193 -10.192  -0.991
 -0.814  -0.743  -0.704  -0.601  -0.577  -0.549  -0.512  -0.484
 -0.427  -0.417  -0.408  -0.396  -0.361  -0.294  -0.259  -0.234

          Ground-State Mulliken Net Atomic Charges

     Atom                 Charge (a.u.)    Spin (a.u.)
  --------------------------------------------------------
      1 C                    -0.133932      -0.094691
      2 C                    -0.332359      -0.166578
      3 C                    -0.022976       0.381967
      4 C                    -0.109357      -0.124501
      5 C                    -0.042132       0.314544
      6 N                    -0.054793       0.045285
      7 H                     0.135976       0.016044
      8 H                     0.163382       0.023393
      9 H                     0.131393      -0.017452
     10 H                     0.131780       0.002400
     11 H                     0.139169      -0.014158
     12 C                    -0.135353       0.611059
     13 H                     0.129203       0.022687
  --------------------------------------------------------
  Sum of atomic charges =     0.000000

                    Cartesian Multipole Moments
 -----------------------------------------------------------------
    Charge (ESU x 10^10)
                 0.0000
    Dipole Moment (Debye)
         X      -0.1028      Y       0.3925      Z       0.0570
       Tot       0.4097
    Quadrupole Moments (Debye-Ang)
        XX     -40.7840     XY       0.6368     YY     -36.9792
        XZ      -3.5409     YZ       0.3713     ZZ     -43.5099

 Frequency:      -605.90                 204.10                 318.24
 Force Cnst:      1.1185                 0.0945                 0.1773
 Red. Mass:       5.1712                 3.8483                 2.9716
 IR Intens:        0.682                 10.159                  7.019
 Frequency:       439.23                 577.27                 658.73
 Force Cnst:      0.3392                 0.4934                 0.3385
 Red. Mass:       2.9842                 2.5128                 1.3238
 IR Intens:        7.583                 13.333                 27.913
 Frequency:       719.72                 725.83                 749.01
 Force Cnst:      1.2105                 0.5244                 0.6930
 Red. Mass:       3.9662                 1.6895                 2.0967
 IR Intens:       38.077                 71.532                 11.628
 Frequency:       774.27                 825.21                 850.97
 Force Cnst:      0.5193                 0.4983                 1.5215
 Red. Mass:       1.4701                 1.2420                 3.5662
 IR Intens:       23.899                 75.697                  2.400
 Frequency:       876.34                 889.39                 907.19
 Force Cnst:      0.7254                 0.6240                 0.9446
 Red. Mass:       1.6031                 1.3390                 1.9481
 IR Intens:        9.928                  3.266                 22.463
 Frequency:       965.80                1064.58                1083.84
 Force Cnst:      0.9386                 1.0815                 0.9057
 Red. Mass:       1.7079                 1.6196                 1.3086
 IR Intens:        4.107                  8.752                  0.781
 Frequency:      1101.55                1190.85                1206.90
 Force Cnst:      1.1664                 2.3991                 1.4902
 Red. Mass:       1.6315                 2.8713                 1.7364
 IR Intens:       16.455                 29.399                 24.455
 Frequency:      1256.46                1309.88                1376.88
 Force Cnst:      1.7262                 2.1588                 3.7599
 Red. Mass:       1.8559                 2.1355                 3.3662
 IR Intens:        1.816                  0.784                 14.831
 Frequency:      1439.82                1512.81                1617.84
 Force Cnst:      2.8144                 5.0291                 9.0330
 Red. Mass:       2.3042                 3.7296                 5.8575
 IR Intens:        7.634                  3.355                 22.505
 Frequency:      3173.59                3209.74                3211.66
 Force Cnst:      6.4179                 6.7535                 6.6466
 Red. Mass:       1.0815                 1.1126                 1.0937
 IR Intens:       12.034                 20.634                  1.862
 Frequency:      3236.86                3256.82                3267.90
 Force Cnst:      6.7263                 6.8417                 6.9340
 Red. Mass:       1.0896                 1.0948                 1.1020
 IR Intens:        4.775                  3.821                  1.837

 STANDARD THERMODYNAMIC QUANTITIES AT   298.15 K  AND     1.00 ATM

   This Molecule has  1 Imaginary Frequencies
   Zero point vibrational energy:       62.900 kcal/mol

   Atom    1 Element C  Has Mass   12.00000
   Atom    2 Element C  Has Mass   12.00000
   Atom    3 Element C  Has Mass   12.00000
   Atom    4 Element C  Has Mass   12.00000
   Atom    5 Element C  Has Mass   12.00000
   Atom    6 Element N  Has Mass   14.00307
   Atom    7 Element H  Has Mass    1.00783
   Atom    8 Element H  Has Mass    1.00783
   Atom    9 Element H  Has Mass    1.00783
   Atom   10 Element H  Has Mass    1.00783
   Atom   11 Element H  Has Mass    1.00783
   Atom   12 Element C  Has Mass   12.00000
   Atom   13 Element H  Has Mass    1.00783
   Molecular Mass:    92.050050 amu
   Principal axes and moments of inertia in amu*Bohr^2:
                             1           2           3
    Eigenvalues --      296.39415   620.54618   810.02544
          X               0.90593    -0.09121     0.41348
          Y               0.04223     0.99112     0.12610
          Z              -0.42131    -0.09678     0.90174
   Rotational Symmetry Number is   1
   The Molecule is an Asymmetric Top
   Translational Enthalpy:        0.889 kcal/mol
   Rotational Enthalpy:           0.889 kcal/mol
   Vibrational Enthalpy:         64.421 kcal/mol
   gas constant (RT):             0.592 kcal/mol
   Translational Entropy:        39.471  cal/mol.K
   Rotational Entropy:           26.502  cal/mol.K
   Vibrational Entropy:           7.431  cal/mol.K

   Total Enthalpy:               66.790 kcal/mol
   Total Entropy:                73.404  cal/mol.K

 Total job time:  579.86s(wall), 545.43s(cpu)
        *  Thank you very much for using Q-Chem.  Have a nice day.  *
