 Q-Chem 5.0, Q-Chem, Inc., Pleasanton, CA (2017)
 Q-Chem 5.0.2 for Intel X86 EM64T Linux

User input:
--------------------------------------------------------------
$molecule
0 2
C        1.3741838279    0.6746027782   -0.6999838091
C        0.1918183692   -1.1266195425   -0.0801984832
C       -1.0612641464   -1.0100917319    0.4828706694
C       -1.6607870448    0.2302879281    0.8200295328
C       -0.8607983180    1.3160994385    0.4320227296
N        0.1432445501    0.9117241897   -0.2893267737
H        2.0481946600    1.4576256560   -1.0468862701
H        0.5861609541   -2.1151193975   -0.2527161817
H       -1.6209189134   -1.9270354420    0.6819493767
H       -2.6528341376    0.3622501212    1.2494743836
H       -1.1083157955    2.3515600204    0.6830028911
C        1.7571038603   -0.6120013346   -0.8465980763
H        2.8001483764   -0.7804387207   -1.2166110083
$end

$rem
method                b3lyp
basis                 6-31g(d)
unrestricted          true
symmetry              off
sym_ignore            true
incdft                false
incfock               0
scf_convergence       8
thresh                14
jobtype               sp
scf_guess             core
scf_guess_mix         5
scf_algorithm         diis
max_scf_cycles        100
$end

--------------------------------------------------------------

             Standard Nuclear Orientation (Angstroms)
    I     Atom           X                Y                Z
 ----------------------------------------------------------------
    1      C       1.3741838279     0.6746027782    -0.6999838091
    2      C       0.1918183692    -1.1266195425    -0.0801984832
    3      C      -1.0612641464    -1.0100917319     0.4828706694
    4      C      -1.6607870448     0.2302879281     0.8200295328
    5      C      -0.8607983180     1.3160994385     0.4320227296
    6      N       0.1432445501     0.9117241897    -0.2893267737
    7      H       2.0481946600     1.4576256560    -1.0468862701
    8      H       0.5861609541    -2.1151193975    -0.2527161817
    9      H      -1.6209189134    -1.9270354420     0.6819493767
   10      H      -2.6528341376     0.3622501212     1.2494743836
   11      H      -1.1083157955     2.3515600204     0.6830028911
   12      C       1.7571038603    -0.6120013346    -0.8465980763
   13      H       2.8001483764    -0.7804387207    -1.2166110083
 ----------------------------------------------------------------

   24    -286.7225358756      7.78E-09 Convergence criterion met
 Total energy in the final basis set = -286.72253588

                    Orbital Energies (a.u.)
 --------------------------------------------------------------

 Alpha MOs
 -- Occupied --
-14.325 -10.241 -10.227 -10.218 -10.197 -10.196 -10.195  -0.945
 -0.811  -0.768  -0.683  -0.638  -0.557  -0.539  -0.498  -0.465
 -0.434  -0.412  -0.402  -0.392  -0.308  -0.275  -0.264  -0.202
 -0.177

 Beta MOs
 -- Occupied --
-14.319 -10.243 -10.228 -10.214 -10.197 -10.191 -10.191  -0.936
 -0.806  -0.761  -0.670  -0.632  -0.552  -0.538  -0.494  -0.463
 -0.430  -0.403  -0.394  -0.385  -0.286  -0.261  -0.251  -0.195

          Ground-State Mulliken Net Atomic Charges

     Atom                 Charge (a.u.)    Spin (a.u.)
  --------------------------------------------------------
      1 C                     0.090982      -0.077832
      2 C                    -0.094326       0.308792
      3 C                    -0.126585      -0.129091
      4 C                    -0.146733       0.447417
      5 C                     0.078890      -0.148475
      6 N                    -0.380530       0.291530
      7 H                     0.116055       0.000140
      8 H                     0.113893      -0.016164
      9 H                     0.137955       0.003305
     10 H                     0.141796      -0.022164
     11 H                     0.133978       0.003745
     12 C                    -0.214627       0.358467
     13 H                     0.149253      -0.019671
  --------------------------------------------------------
  Sum of atomic charges =    -0.000000

                    Cartesian Multipole Moments
 -----------------------------------------------------------------
    Charge (ESU x 10^10)
                 0.0000
    Dipole Moment (Debye)
         X      -0.2156      Y       0.6655      Z       0.3926
       Tot       0.8022
    Quadrupole Moments (Debye-Ang)
        XX     -35.5429     XY      -0.5027     YY     -38.8971
        XZ      -3.4353     YZ       0.5358     ZZ     -42.1302

 Total job time:  25.83s(wall), 62.26s(cpu)
        *  Thank you very much for using Q-Chem.  Have a nice day.  *
