 Q-Chem 5.0, Q-Chem, Inc., Pleasanton, CA (2017)
 Q-Chem 5.0.2 for Intel X86 EM64T Linux

User input:
--------------------------------------------------------------
$molecule
0 2
C        1.3741838279    0.6746027782   -0.6999838091
C        0.1918183692   -1.1266195425   -0.0801984832
C       -1.0612641464   -1.0100917319    0.4828706694
C       -1.6607870448    0.2302879281    0.8200295328
C       -0.8607983180    1.3160994385    0.4320227296
N        0.1432445501    0.9117241897   -0.2893267737
H        2.0481946600    1.4576256560   -1.0468862701
H        0.5861609541   -2.1151193975   -0.2527161817
H       -1.6209189134   -1.9270354420    0.6819493767
H       -2.6528341376    0.3622501212    1.2494743836
H       -1.1083157955    2.3515600204    0.6830028911
C        1.7571038603   -0.6120013346   -0.8465980763
H        2.8001483764   -0.7804387207   -1.2166110083
$end

$rem
method                b3lyp
basis                 6-31g(d)
unrestricted          true
symmetry              off
sym_ignore            true
incdft                false
incfock               0
scf_convergence       8
thresh                14
jobtype               ts
scf_guess             read
scf_algorithm         diis
max_scf_cycles        100
geom_opt_max_cycles   500
geom_opt_dmax         100
geom_opt_tol_gradient 10
geom_opt_hessian      read
$end

--------------------------------------------------------------

    2    -286.7225358756      1.02E-09 Convergence criterion met
 Total energy in the final basis set = -286.72253588
   16    -286.7233941574      9.31E-09 Convergence criterion met
 Total energy in the final basis set = -286.72339416
   16    -286.7241109297      7.05E-09 Convergence criterion met
 Total energy in the final basis set = -286.72411093
   16    -286.7247431033      6.95E-09 Convergence criterion met
 Total energy in the final basis set = -286.72474310
   16    -286.7253047639      6.43E-09 Convergence criterion met
 Total energy in the final basis set = -286.72530476
   16    -286.7259195379      4.97E-09 Convergence criterion met
 Total energy in the final basis set = -286.72591954
   17    -286.7267470578      6.70E-09 Convergence criterion met
 Total energy in the final basis set = -286.72674706
   18    -286.7278419399      5.07E-09 Convergence criterion met
    8    -286.8304028151      6.03E-09 Convergence criterion met
 Total energy in the final basis set = -286.83040282
    8    -286.8304028151      5.88E-09 Convergence criterion met
 Total energy in the final basis set = -286.83040282
    8    -286.8304028152      5.74E-09 Convergence criterion met
 Total energy in the final basis set = -286.83040282
    8    -286.8304028152      5.59E-09 Convergence criterion met
 Total energy in the final basis set = -286.83040282
    8    -286.8304028153      5.46E-09 Convergence criterion met
 Total energy in the final basis set = -286.83040282
    8    -286.8304028153      5.33E-09 Convergence criterion met
 Total energy in the final basis set = -286.83040282

             Standard Nuclear Orientation (Angstroms)
    I     Atom           X                Y                Z
 ----------------------------------------------------------------
    1      C       1.3739565980     0.6816414054    -0.7582440069
    2      C      -0.1036549007    -0.9196312082    -0.4353474902
    3      C      -1.0448833464    -1.0955888954     0.5962483288
    4      C      -1.4961728969     0.1918454279     0.9909642047
    5      C      -0.8608294512     1.1324022267     0.2097780239
    6      N      -0.0513418268     0.4919396068    -0.7261443168
    7      H       1.8048826430     1.6094277272    -1.1285132546
    8      H       0.0506380389    -1.6149275650    -1.2528216090
    9      H      -1.4055055618    -2.0458360895     0.9677364295
   10      H      -2.2387577256     0.4046726716     1.7504512201
   11      H      -0.8738536990     2.2122378299     0.2718808218
   12      C       1.8860208148    -0.4561075567    -0.3039169347
   13      H       2.8954375558    -0.8592316177    -0.2650424359
 ----------------------------------------------------------------

    8    -286.8304028154      5.20E-09 Convergence criterion met
 Total energy in the final basis set = -286.83040282
 Final energy is   -286.830402815355
 **  OPTIMIZATION CONVERGED  **

                    Orbital Energies (a.u.)
 --------------------------------------------------------------

 Alpha MOs
 -- Occupied --
-14.366 -10.226 -10.218 -10.217 -10.188 -10.188 -10.186  -0.983
 -0.808  -0.739  -0.698  -0.600  -0.571  -0.544  -0.507  -0.481
 -0.423  -0.410  -0.401  -0.389  -0.357  -0.292  -0.274  -0.234
 -0.159

 Beta MOs
 -- Occupied --
-14.364 -10.228 -10.218 -10.214 -10.189 -10.181 -10.178  -0.978
 -0.801  -0.731  -0.693  -0.590  -0.567  -0.540  -0.502  -0.474
 -0.416  -0.406  -0.398  -0.386  -0.350  -0.281  -0.246  -0.221

          Ground-State Mulliken Net Atomic Charges

     Atom                 Charge (a.u.)    Spin (a.u.)
  --------------------------------------------------------
      1 C                     0.015957      -0.084347
      2 C                    -0.013852      -0.156460
      3 C                    -0.148659       0.360174
      4 C                    -0.143283      -0.094794
      5 C                     0.017107       0.274469
      6 N                    -0.379479       0.068173
      7 H                     0.142596       0.018171
      8 H                     0.176413       0.021693
      9 H                     0.136896      -0.017362
     10 H                     0.137121       0.002201
     11 H                     0.150266      -0.014133
     12 C                    -0.224952       0.597525
     13 H                     0.133870       0.024692
  --------------------------------------------------------
  Sum of atomic charges =    -0.000000

                    Cartesian Multipole Moments
 -----------------------------------------------------------------
    Charge (ESU x 10^10)
                 0.0000
    Dipole Moment (Debye)
         X      -0.1269      Y       0.4270      Z       0.0445
       Tot       0.4477
    Quadrupole Moments (Debye-Ang)
        XX     -39.1692     XY       0.6420     YY     -35.9940
        XZ      -3.1412     YZ       0.4075     ZZ     -41.7387

 Total job time:  1613.16s(wall), 3639.25s(cpu)
        *  Thank you very much for using Q-Chem.  Have a nice day.  *
