 Q-Chem 5.0, Q-Chem, Inc., Pleasanton, CA (2017)
 Q-Chem 5.0.2 for Intel X86 EM64T Linux

User input:
--------------------------------------------------------------
$molecule
0 2
C        1.3741838279    0.6746027782   -0.6999838091
C        0.1918183692   -1.1266195425   -0.0801984832
C       -1.0612641464   -1.0100917319    0.4828706694
C       -1.6607870448    0.2302879281    0.8200295328
C       -0.8607983180    1.3160994385    0.4320227296
N        0.1432445501    0.9117241897   -0.2893267737
H        2.0481946600    1.4576256560   -1.0468862701
H        0.5861609541   -2.1151193975   -0.2527161817
H       -1.6209189134   -1.9270354420    0.6819493767
H       -2.6528341376    0.3622501212    1.2494743836
H       -1.1083157955    2.3515600204    0.6830028911
C        1.7571038603   -0.6120013346   -0.8465980763
H        2.8001483764   -0.7804387207   -1.2166110083
$end

$rem
method                b3lyp
basis                 6-31g(d)
unrestricted          true
symmetry              off
sym_ignore            true
incdft                false
incfock               0
scf_convergence       8
thresh                14
jobtype               freq
scf_guess             read
scf_algorithm         diis
max_scf_cycles        100
$end

--------------------------------------------------------------

             Standard Nuclear Orientation (Angstroms)
    I     Atom           X                Y                Z
 ----------------------------------------------------------------
    1      C       1.3741838279     0.6746027782    -0.6999838091
    2      C       0.1918183692    -1.1266195425    -0.0801984832
    3      C      -1.0612641464    -1.0100917319     0.4828706694
    4      C      -1.6607870448     0.2302879281     0.8200295328
    5      C      -0.8607983180     1.3160994385     0.4320227296
    6      N       0.1432445501     0.9117241897    -0.2893267737
    7      H       2.0481946600     1.4576256560    -1.0468862701
    8      H       0.5861609541    -2.1151193975    -0.2527161817
    9      H      -1.6209189134    -1.9270354420     0.6819493767
   10      H      -2.6528341376     0.3622501212     1.2494743836
   11      H      -1.1083157955     2.3515600204     0.6830028911
   12      C       1.7571038603    -0.6120013346    -0.8465980763
   13      H       2.8001483764    -0.7804387207    -1.2166110083
 ----------------------------------------------------------------

    2    -286.7225358841      2.84E-09 Convergence criterion met
 Total energy in the final basis set = -286.72253588

                    Orbital Energies (a.u.)
 --------------------------------------------------------------

 Alpha MOs
 -- Occupied --
-14.325 -10.241 -10.227 -10.218 -10.197 -10.196 -10.195  -0.945
 -0.811  -0.768  -0.683  -0.638  -0.557  -0.539  -0.498  -0.465
 -0.434  -0.412  -0.402  -0.392  -0.308  -0.275  -0.264  -0.202
 -0.177

 Beta MOs
 -- Occupied --
-14.319 -10.243 -10.228 -10.214 -10.197 -10.191 -10.191  -0.936
 -0.806  -0.761  -0.670  -0.632  -0.552  -0.538  -0.494  -0.463
 -0.430  -0.403  -0.394  -0.385  -0.286  -0.261  -0.251  -0.195

          Ground-State Mulliken Net Atomic Charges

     Atom                 Charge (a.u.)    Spin (a.u.)
  --------------------------------------------------------
      1 C                     0.090982      -0.077830
      2 C                    -0.094326       0.308790
      3 C                    -0.126585      -0.129090
      4 C                    -0.146733       0.447416
      5 C                     0.078890      -0.148474
      6 N                    -0.380530       0.291531
      7 H                     0.116055       0.000139
      8 H                     0.113893      -0.016164
      9 H                     0.137955       0.003305
     10 H                     0.141796      -0.022164
     11 H                     0.133978       0.003745
     12 C                    -0.214627       0.358465
     13 H                     0.149254      -0.019671
  --------------------------------------------------------
  Sum of atomic charges =     0.000000

                    Cartesian Multipole Moments
 -----------------------------------------------------------------
    Charge (ESU x 10^10)
                 0.0000
    Dipole Moment (Debye)
         X      -0.2156      Y       0.6655      Z       0.3926
       Tot       0.8022
    Quadrupole Moments (Debye-Ang)
        XX     -35.5429     XY      -0.5027     YY     -38.8971
        XZ      -3.4353     YZ       0.5358     ZZ     -42.1302

 Frequency:      -644.77                -477.36                -159.01
 Force Cnst:      1.0144                 0.2298                 0.0347
 Red. Mass:       4.1415                 1.7115                 2.3303
 IR Intens:       76.067                  5.646                  6.981
 Frequency:       181.39                 448.28                 482.50
 Force Cnst:      0.0464                 0.6646                 0.3807
 Red. Mass:       2.3948                 5.6129                 2.7754
 IR Intens:       33.749                 52.785                 10.496
 Frequency:       587.59                 657.53                 688.92
 Force Cnst:      0.9166                 0.8806                 0.6145
 Red. Mass:       4.5061                 3.4570                 2.1977
 IR Intens:        9.845                  9.552                 10.608
 Frequency:       700.53                 776.36                 853.81
 Force Cnst:      0.5189                 0.4577                 1.6121
 Red. Mass:       1.7946                 1.2888                 3.7533
 IR Intens:       20.165                  4.132                  4.826
 Frequency:       889.84                 935.43                 960.32
 Force Cnst:      0.9229                 0.7601                 0.7194
 Red. Mass:       1.9783                 1.4744                 1.3240
 IR Intens:        2.461                  2.279                  2.469
 Frequency:       974.99                1053.07                1068.79
 Force Cnst:      1.3745                 1.1530                 1.2110
 Red. Mass:       2.4540                 1.7646                 1.7993
 IR Intens:       13.872                  7.347                  6.057
 Frequency:      1120.16                1225.96                1303.50
 Force Cnst:      1.0960                 1.5210                 1.6496
 Red. Mass:       1.4825                 1.7176                 1.6478
 IR Intens:       21.767                  2.872                  1.158
 Frequency:      1327.67                1402.35                1464.94
 Force Cnst:      1.5359                 1.8576                 2.3115
 Red. Mass:       1.4788                 1.6032                 1.8282
 IR Intens:       15.281                 14.354                  0.512
 Frequency:      1513.23                1600.68                1674.15
 Force Cnst:      2.5406                 4.9094                14.2870
 Red. Mass:       1.8831                 3.2522                 8.6518
 IR Intens:        8.541                  8.855                 39.198
 Frequency:      2906.36                3095.20                3131.40
 Force Cnst:      5.4204                 6.1453                 6.2619
 Red. Mass:       1.0891                 1.0887                 1.0839
 IR Intens:       17.811                 99.753                  0.942
 Frequency:      3132.65                3171.50                3192.12
 Force Cnst:      6.2821                 6.4791                 6.5768
 Red. Mass:       1.0865                 1.0933                 1.0955
 IR Intens:      138.078                116.061                 16.664

 STANDARD THERMODYNAMIC QUANTITIES AT   298.15 K  AND     1.00 ATM

   This Molecule has  3 Imaginary Frequencies
   Zero point vibrational energy:       60.787 kcal/mol

   Atom    1 Element C  Has Mass   12.00000
   Atom    2 Element C  Has Mass   12.00000
   Atom    3 Element C  Has Mass   12.00000
   Atom    4 Element C  Has Mass   12.00000
   Atom    5 Element C  Has Mass   12.00000
   Atom    6 Element N  Has Mass   14.00307
   Atom    7 Element H  Has Mass    1.00783
   Atom    8 Element H  Has Mass    1.00783
   Atom    9 Element H  Has Mass    1.00783
   Atom   10 Element H  Has Mass    1.00783
   Atom   11 Element H  Has Mass    1.00783
   Atom   12 Element C  Has Mass   12.00000
   Atom   13 Element H  Has Mass    1.00783
   Molecular Mass:    92.050050 amu
   Principal axes and moments of inertia in amu*Bohr^2:
                             1           2           3
    Eigenvalues --      308.89015   621.89130   927.32446
          X               0.89385     0.07943     0.44128
          Y              -0.09978     0.99474     0.02308
          Z              -0.43713    -0.06466     0.89707
   Rotational Symmetry Number is   1
   The Molecule is an Asymmetric Top
   Translational Enthalpy:        0.889 kcal/mol
   Rotational Enthalpy:           0.889 kcal/mol
   Vibrational Enthalpy:         62.103 kcal/mol
   gas constant (RT):             0.592 kcal/mol
   Translational Entropy:        39.471  cal/mol.K
   Rotational Entropy:           26.679  cal/mol.K
   Vibrational Entropy:           6.498  cal/mol.K

   Total Enthalpy:               64.473 kcal/mol
   Total Entropy:                72.648  cal/mol.K

 Total job time:  270.15s(wall), 255.81s(cpu)
        *  Thank you very much for using Q-Chem.  Have a nice day.  *
