 Q-Chem 5.0, Q-Chem, Inc., Pleasanton, CA (2017)
 Q-Chem 5.0.2 for Intel X86 EM64T Linux

User input:
--------------------------------------------------------------
$molecule
0 2
C        1.3739565980    0.6816414054   -0.7582440069
C       -0.1036549007   -0.9196312082   -0.4353474902
C       -1.0448833464   -1.0955888954    0.5962483288
C       -1.4961728969    0.1918454279    0.9909642047
C       -0.8608294512    1.1324022267    0.2097780239
N       -0.0513418268    0.4919396068   -0.7261443168
H        1.8048826430    1.6094277272   -1.1285132546
H        0.0506380389   -1.6149275650   -1.2528216090
H       -1.4055055618   -2.0458360895    0.9677364295
H       -2.2387577256    0.4046726716    1.7504512201
H       -0.8738536990    2.2122378299    0.2718808218
C        1.8860208148   -0.4561075567   -0.3039169347
H        2.8954375558   -0.8592316177   -0.2650424359
$end

$rem
method                b3lyp
basis                 6-31+g(d,p)
unrestricted          true
symmetry              off
sym_ignore            true
incdft                false
incfock               0
scf_convergence       8
thresh                14
jobtype               freq
scf_guess             read
scf_algorithm         diis
max_scf_cycles        100
$end

--------------------------------------------------------------

             Standard Nuclear Orientation (Angstroms)
    I     Atom           X                Y                Z
 ----------------------------------------------------------------
    1      C       1.3739565980     0.6816414054    -0.7582440069
    2      C      -0.1036549007    -0.9196312082    -0.4353474902
    3      C      -1.0448833464    -1.0955888954     0.5962483288
    4      C      -1.4961728969     0.1918454279     0.9909642047
    5      C      -0.8608294512     1.1324022267     0.2097780239
    6      N      -0.0513418268     0.4919396068    -0.7261443168
    7      H       1.8048826430     1.6094277272    -1.1285132546
    8      H       0.0506380389    -1.6149275650    -1.2528216090
    9      H      -1.4055055618    -2.0458360895     0.9677364295
   10      H      -2.2387577256     0.4046726716     1.7504512201
   11      H      -0.8738536990     2.2122378299     0.2718808218
   12      C       1.8860208148    -0.4561075567    -0.3039169347
   13      H       2.8954375558    -0.8592316177    -0.2650424359
 ----------------------------------------------------------------

    2    -286.8544814637      7.45E-10 Convergence criterion met
 Total energy in the final basis set = -286.85448146

                    Orbital Energies (a.u.)
 --------------------------------------------------------------

 Alpha MOs
 -- Occupied --
-14.380 -10.238 -10.230 -10.230 -10.202 -10.199 -10.198  -0.996
 -0.820  -0.751  -0.710  -0.611  -0.582  -0.554  -0.516  -0.491
 -0.435  -0.420  -0.410  -0.399  -0.368  -0.305  -0.286  -0.248
 -0.172

 Beta MOs
 -- Occupied --
-14.378 -10.240 -10.231 -10.226 -10.200 -10.193 -10.192  -0.992
 -0.814  -0.743  -0.705  -0.601  -0.578  -0.549  -0.511  -0.484
 -0.427  -0.417  -0.408  -0.396  -0.361  -0.294  -0.259  -0.235

          Ground-State Mulliken Net Atomic Charges

     Atom                 Charge (a.u.)    Spin (a.u.)
  --------------------------------------------------------
      1 C                    -0.134337      -0.094655
      2 C                    -0.332219      -0.165966
      3 C                    -0.022860       0.378354
      4 C                    -0.108643      -0.121711
      5 C                    -0.040776       0.310460
      6 N                    -0.055693       0.044634
      7 H                     0.135712       0.016386
      8 H                     0.163194       0.023018
      9 H                     0.131447      -0.017254
     10 H                     0.131949       0.002319
     11 H                     0.138955      -0.013999
     12 C                    -0.135593       0.614830
     13 H                     0.128864       0.023586
  --------------------------------------------------------
  Sum of atomic charges =    -0.000000

                    Cartesian Multipole Moments
 -----------------------------------------------------------------
    Charge (ESU x 10^10)
                 0.0000
    Dipole Moment (Debye)
         X      -0.1304      Y       0.4002      Z       0.0467
       Tot       0.4235
    Quadrupole Moments (Debye-Ang)
        XX     -40.7528     XY       0.6812     YY     -37.0161
        XZ      -3.5683     YZ       0.3848     ZZ     -43.4963

 Frequency:      -598.95                 202.80                 315.62
 Force Cnst:      1.0931                 0.0946                 0.1758
 Red. Mass:       5.1715                 3.9042                 2.9957
 IR Intens:        0.705                  9.635                  6.905
 Frequency:       438.41                 576.74                 664.49
 Force Cnst:      0.3421                 0.5017                 0.3491
 Red. Mass:       3.0205                 2.5599                 1.3421
 IR Intens:        7.254                 12.541                 30.295
 Frequency:       719.73                 729.66                 752.37
 Force Cnst:      1.2512                 0.5558                 0.6551
 Red. Mass:       4.0995                 1.7719                 1.9641
 IR Intens:       35.065                 69.496                 14.314
 Frequency:       778.99                 830.49                 852.41
 Force Cnst:      0.5117                 0.5128                 1.5452
 Red. Mass:       1.4313                 1.2619                 3.6095
 IR Intens:       24.846                 74.761                  3.625
 Frequency:       880.49                 892.74                 910.60
 Force Cnst:      0.7096                 0.6271                 0.9599
 Red. Mass:       1.5535                 1.3355                 1.9648
 IR Intens:        9.676                  3.237                 24.973
 Frequency:       969.40                1067.67                1086.80
 Force Cnst:      0.9264                 1.0858                 0.9111
 Red. Mass:       1.6732                 1.6167                 1.3092
 IR Intens:        4.516                  8.622                  0.796
 Frequency:      1104.51                1192.96                1209.44
 Force Cnst:      1.1791                 2.7876                 1.3649
 Red. Mass:       1.6405                 3.3245                 1.5837
 IR Intens:       16.927                 26.518                 28.304
 Frequency:      1258.44                1312.34                1383.07
 Force Cnst:      1.7295                 2.1449                 3.8509
 Red. Mass:       1.8536                 2.1138                 3.4168
 IR Intens:        1.941                  0.862                 14.208
 Frequency:      1443.29                1520.80                1628.83
 Force Cnst:      2.8308                 5.1779                 9.2209
 Red. Mass:       2.3065                 3.7998                 5.8989
 IR Intens:        7.664                  3.551                 22.886
 Frequency:      3164.42                3200.54                3207.77
 Force Cnst:      6.3788                 6.7309                 6.6181
 Red. Mass:       1.0812                 1.1153                 1.0916
 IR Intens:       12.067                 23.380                  0.661
 Frequency:      3231.25                3251.93                3262.35
 Force Cnst:      6.7032                 6.8211                 6.9135
 Red. Mass:       1.0897                 1.0948                 1.1025
 IR Intens:        4.664                  4.076                  1.929

 STANDARD THERMODYNAMIC QUANTITIES AT   298.15 K  AND     1.00 ATM

   This Molecule has  1 Imaginary Frequencies
   Zero point vibrational energy:       62.960 kcal/mol

   Atom    1 Element C  Has Mass   12.00000
   Atom    2 Element C  Has Mass   12.00000
   Atom    3 Element C  Has Mass   12.00000
   Atom    4 Element C  Has Mass   12.00000
   Atom    5 Element C  Has Mass   12.00000
   Atom    6 Element N  Has Mass   14.00307
   Atom    7 Element H  Has Mass    1.00783
   Atom    8 Element H  Has Mass    1.00783
   Atom    9 Element H  Has Mass    1.00783
   Atom   10 Element H  Has Mass    1.00783
   Atom   11 Element H  Has Mass    1.00783
   Atom   12 Element C  Has Mass   12.00000
   Atom   13 Element H  Has Mass    1.00783
   Molecular Mass:    92.050050 amu
   Principal axes and moments of inertia in amu*Bohr^2:
                             1           2           3
    Eigenvalues --      295.43093   621.23991   810.11262
          X               0.90646    -0.09066     0.41244
          Y               0.04183     0.99116     0.12592
          Z              -0.42021    -0.09689     0.90224
   Rotational Symmetry Number is   1
   The Molecule is an Asymmetric Top
   Translational Enthalpy:        0.889 kcal/mol
   Rotational Enthalpy:           0.889 kcal/mol
   Vibrational Enthalpy:         64.476 kcal/mol
   gas constant (RT):             0.592 kcal/mol
   Translational Entropy:        39.471  cal/mol.K
   Rotational Entropy:           26.500  cal/mol.K
   Vibrational Entropy:           7.423  cal/mol.K

   Total Enthalpy:               66.846 kcal/mol
   Total Entropy:                73.394  cal/mol.K

 Total job time:  573.68s(wall), 544.94s(cpu)
        *  Thank you very much for using Q-Chem.  Have a nice day.  *
