 Q-Chem 5.0, Q-Chem, Inc., Pleasanton, CA (2017)
 Q-Chem 5.0.2 for Intel X86 EM64T Linux

User input:
--------------------------------------------------------------
$molecule
0 2
C        1.3739565980    0.6816414054   -0.7582440069
C       -0.1036549007   -0.9196312082   -0.4353474902
C       -1.0448833464   -1.0955888954    0.5962483288
C       -1.4961728969    0.1918454279    0.9909642047
C       -0.8608294512    1.1324022267    0.2097780239
N       -0.0513418268    0.4919396068   -0.7261443168
H        1.8048826430    1.6094277272   -1.1285132546
H        0.0506380389   -1.6149275650   -1.2528216090
H       -1.4055055618   -2.0458360895    0.9677364295
H       -2.2387577256    0.4046726716    1.7504512201
H       -0.8738536990    2.2122378299    0.2718808218
C        1.8860208148   -0.4561075567   -0.3039169347
H        2.8954375558   -0.8592316177   -0.2650424359
$end

$rem
method                b3lyp
basis                 6-31+g(d,p)
unrestricted          true
symmetry              off
sym_ignore            true
incdft                false
incfock               0
scf_convergence       8
thresh                14
jobtype               sp
scf_guess             core
scf_guess_mix         5
scf_algorithm         diis
max_scf_cycles        100
$end

--------------------------------------------------------------

             Standard Nuclear Orientation (Angstroms)
    I     Atom           X                Y                Z
 ----------------------------------------------------------------
    1      C       1.3739565980     0.6816414054    -0.7582440069
    2      C      -0.1036549007    -0.9196312082    -0.4353474902
    3      C      -1.0448833464    -1.0955888954     0.5962483288
    4      C      -1.4961728969     0.1918454279     0.9909642047
    5      C      -0.8608294512     1.1324022267     0.2097780239
    6      N      -0.0513418268     0.4919396068    -0.7261443168
    7      H       1.8048826430     1.6094277272    -1.1285132546
    8      H       0.0506380389    -1.6149275650    -1.2528216090
    9      H      -1.4055055618    -2.0458360895     0.9677364295
   10      H      -2.2387577256     0.4046726716     1.7504512201
   11      H      -0.8738536990     2.2122378299     0.2718808218
   12      C       1.8860208148    -0.4561075567    -0.3039169347
   13      H       2.8954375558    -0.8592316177    -0.2650424359
 ----------------------------------------------------------------

   23    -286.8544814636      2.66E-09 Convergence criterion met
 Total energy in the final basis set = -286.85448146

                    Orbital Energies (a.u.)
 --------------------------------------------------------------

 Alpha MOs
 -- Occupied --
-14.380 -10.238 -10.230 -10.230 -10.202 -10.199 -10.198  -0.996
 -0.820  -0.751  -0.710  -0.611  -0.582  -0.554  -0.516  -0.491
 -0.435  -0.420  -0.410  -0.399  -0.368  -0.305  -0.286  -0.248
 -0.172

 Beta MOs
 -- Occupied --
-14.378 -10.240 -10.231 -10.226 -10.200 -10.193 -10.192  -0.992
 -0.814  -0.743  -0.705  -0.601  -0.578  -0.549  -0.511  -0.484
 -0.427  -0.417  -0.408  -0.396  -0.361  -0.294  -0.259  -0.235

          Ground-State Mulliken Net Atomic Charges

     Atom                 Charge (a.u.)    Spin (a.u.)
  --------------------------------------------------------
      1 C                    -0.134337      -0.094656
      2 C                    -0.332219      -0.165966
      3 C                    -0.022860       0.378354
      4 C                    -0.108643      -0.121711
      5 C                    -0.040776       0.310461
      6 N                    -0.055693       0.044634
      7 H                     0.135712       0.016386
      8 H                     0.163194       0.023018
      9 H                     0.131447      -0.017254
     10 H                     0.131949       0.002319
     11 H                     0.138955      -0.013999
     12 C                    -0.135593       0.614831
     13 H                     0.128864       0.023586
  --------------------------------------------------------
  Sum of atomic charges =    -0.000000

                    Cartesian Multipole Moments
 -----------------------------------------------------------------
    Charge (ESU x 10^10)
                -0.0000
    Dipole Moment (Debye)
         X      -0.1304      Y       0.4002      Z       0.0467
       Tot       0.4235
    Quadrupole Moments (Debye-Ang)
        XX     -40.7528     XY       0.6812     YY     -37.0161
        XZ      -3.5683     YZ       0.3848     ZZ     -43.4963

 Total job time:  45.89s(wall), 118.31s(cpu)
        *  Thank you very much for using Q-Chem.  Have a nice day.  *
