 Q-Chem 5.0, Q-Chem, Inc., Pleasanton, CA (2017)
 Q-Chem 5.0.2 for Intel X86 EM64T Linux

User input:
--------------------------------------------------------------
$molecule
0 2
C        1.1432524990    0.1947299942    0.4326382813
C        0.8357387726   -0.9896863448   -0.4981579485
C       -0.4960093844   -0.9977441719   -0.6896159736
C       -1.0688829887    0.1736483464    0.1353348605
C       -0.4415611190    1.4484661358   -0.4620459009
N        0.8271947293    1.4802953375   -0.3140981871
H        2.1338530467    0.2251323239    0.8814135435
H        1.5758988479   -1.6609774462   -0.9180914003
H       -1.0816987220   -1.6592811055   -1.3178069999
H       -2.1437460672    0.1761021157    0.3128407691
H       -0.9923925316    2.2348034078   -0.9738090538
C       -0.0928447190    0.0586259801    1.3118325888
H       -0.1988023636   -0.6841145732    2.0995654210
$end

$rem
method                b3lyp
basis                 6-31+g(d,p)
unrestricted          true
symmetry              off
sym_ignore            true
incdft                false
incfock               0
scf_convergence       8
thresh                14
jobtype               sp
scf_guess             read
scf_algorithm         diis
max_scf_cycles        100
scf_final_print       1
$end

--------------------------------------------------------------

             Standard Nuclear Orientation (Angstroms)
    I     Atom           X                Y                Z
 ----------------------------------------------------------------
    1      C       1.1432524990     0.1947299942     0.4326382813
    2      C       0.8357387726    -0.9896863448    -0.4981579485
    3      C      -0.4960093844    -0.9977441719    -0.6896159736
    4      C      -1.0688829887     0.1736483464     0.1353348605
    5      C      -0.4415611190     1.4484661358    -0.4620459009
    6      N       0.8271947293     1.4802953375    -0.3140981871
    7      H       2.1338530467     0.2251323239     0.8814135435
    8      H       1.5758988479    -1.6609774462    -0.9180914003
    9      H      -1.0816987220    -1.6592811055    -1.3178069999
   10      H      -2.1437460672     0.1761021157     0.3128407691
   11      H      -0.9923925316     2.2348034078    -0.9738090538
   12      C      -0.0928447190     0.0586259801     1.3118325888
   13      H      -0.1988023636    -0.6841145732     2.0995654210
 ----------------------------------------------------------------

    2    -286.8734985383      1.44E-09 Convergence criterion met
 Total energy in the final basis set = -286.87349854

                    Orbital Energies (a.u.)
 --------------------------------------------------------------

 Alpha MOs
 -- Occupied --
-14.337 -10.235 -10.231 -10.221 -10.216 -10.213 -10.209  -0.965
 -0.833  -0.737  -0.715  -0.589  -0.583  -0.539  -0.520  -0.481
 -0.429  -0.420  -0.391  -0.382  -0.358  -0.305  -0.283  -0.271
 -0.206

 Beta MOs
 -- Occupied --
-14.336 -10.235 -10.231 -10.221 -10.211 -10.208 -10.202  -0.961
 -0.827  -0.735  -0.700  -0.587  -0.571  -0.536  -0.517  -0.472
 -0.426  -0.416  -0.389  -0.379  -0.352  -0.298  -0.273  -0.268

          Ground-State Mulliken Net Atomic Charges

     Atom                 Charge (a.u.)    Spin (a.u.)
  --------------------------------------------------------
      1 C                     0.024934      -0.090284
      2 C                    -0.147614       0.043905
      3 C                    -0.127837       0.096389
      4 C                     0.009439      -0.061389
      5 C                    -0.091362      -0.031872
      6 N                    -0.203998       0.026302
      7 H                     0.129468       0.003598
      8 H                     0.138883       0.000739
      9 H                     0.138408       0.000078
     10 H                     0.124800       0.003443
     11 H                     0.137324      -0.000083
     12 C                    -0.271228       1.035436
     13 H                     0.138783      -0.026263
  --------------------------------------------------------
  Sum of atomic charges =    -0.000000

                    Cartesian Multipole Moments
 -----------------------------------------------------------------
    Charge (ESU x 10^10)
                 0.0000
    Dipole Moment (Debye)
         X      -1.6076      Y      -2.0310      Z      -0.0400
       Tot       2.5906
    Quadrupole Moments (Debye-Ang)
        XX     -38.9020     XY      -4.5027     YY     -44.3888
        XZ       2.2343     YZ       0.2351     ZZ     -42.1733

 Total job time:  3.66s(wall), 11.92s(cpu)
        *  Thank you very much for using Q-Chem.  Have a nice day.  *
