 Q-Chem 5.0, Q-Chem, Inc., Pleasanton, CA (2017)
 Q-Chem 5.0.2 for Intel X86 EM64T Linux

User input:
--------------------------------------------------------------
$molecule
0 2
C        1.2055199906    0.3488166786    0.3411769499
C        0.6797069266   -1.0709552608   -0.1674127014
C       -0.6044272121   -0.9425576707   -0.8387662588
C       -1.0793073158    0.1407864185    0.1258666176
C       -0.5204173093    1.4438612671   -0.4347000209
N        0.7593282106    1.5290616517   -0.3536878875
H        2.2207200709    0.3438608088    0.7224565628
H        1.3939358862   -1.8852684604   -0.2221350669
H       -0.9681647933   -1.2528241498   -1.8135354013
H       -2.1184772156    0.1395229812    0.4596866737
H       -1.1100564687    2.1833691084   -0.9724580591
C        0.0959818986   -0.3292949192    1.0587742751
H        0.0456573308   -0.6483784533    2.0947343162
$end

$rem
method                b3lyp
basis                 6-31+g(d,p)
unrestricted          true
symmetry              off
sym_ignore            true
incdft                false
incfock               0
scf_convergence       6
thresh                14
jobtype               sp
scf_guess             read
scf_algorithm         diis
max_scf_cycles        100
stability_analysis    true
max_cis_cycles        100
cis_n_roots           4
$end

--------------------------------------------------------------

             Standard Nuclear Orientation (Angstroms)
    I     Atom           X                Y                Z
 ----------------------------------------------------------------
    1      C       1.2055199906     0.3488166786     0.3411769499
    2      C       0.6797069266    -1.0709552608    -0.1674127014
    3      C      -0.6044272121    -0.9425576707    -0.8387662588
    4      C      -1.0793073158     0.1407864185     0.1258666176
    5      C      -0.5204173093     1.4438612671    -0.4347000209
    6      N       0.7593282106     1.5290616517    -0.3536878875
    7      H       2.2207200709     0.3438608088     0.7224565628
    8      H       1.3939358862    -1.8852684604    -0.2221350669
    9      H      -0.9681647933    -1.2528241498    -1.8135354013
   10      H      -2.1184772156     0.1395229812     0.4596866737
   11      H      -1.1100564687     2.1833691084    -0.9724580591
   12      C       0.0959818986    -0.3292949192     1.0587742751
   13      H       0.0456573308    -0.6483784533     2.0947343162
 ----------------------------------------------------------------

    2    -286.8593151535      1.23E-09 Convergence criterion met
 Total energy in the final basis set = -286.85931515

         TDDFT/TDA Excitation Energies
 ---------------------------------------------------

 Excited state   1: excitation energy (eV) =    3.4263
 Total energy for state  1:                  -286.73339960 au
    <S**2>     :  0.9281
    Trans. Mom.:  0.0103 X  -0.4358 Y   0.0261 Z
    Strength   :     0.0160054000
    S(  1) --> V(  1) amplitude =  0.9262 alpha
    D( 23) --> S(  1) amplitude = -0.3212 beta

 Excited state   2: excitation energy (eV) =    3.6347
 Total energy for state  2:                  -286.72574386 au
    <S**2>     :  1.2395
    Trans. Mom.:  0.0651 X  -0.0235 Y  -0.0532 Z
    Strength   :     0.0006789416
    D( 24) --> V(  1) amplitude =  0.2670 alpha
    D( 24) --> S(  1) amplitude =  0.9212 beta
    D( 24) --> V(  1) amplitude = -0.1535 beta

 Excited state   3: excitation energy (eV) =    4.1507
 Total energy for state  3:                  -286.70677848 au
    <S**2>     :  0.9456
    Trans. Mom.: -0.1308 X  -0.4818 Y  -0.1004 Z
    Strength   :     0.0263713791
    S(  1) --> V(  1) amplitude =  0.3311 alpha
    D( 23) --> S(  1) amplitude =  0.8889 beta
    D( 23) --> V(  1) amplitude = -0.1786 beta

 Excited state   4: excitation energy (eV) =    4.2976
 Total energy for state  4:                  -286.70138223 au
    <S**2>     :  0.8077
    Trans. Mom.:  0.0253 X   0.0887 Y  -0.1294 Z
    Strength   :     0.0026572178
    S(  1) --> V(  2) amplitude =  0.9830 alpha

 ---------------------------------------------------

                    Orbital Energies (a.u.)
 --------------------------------------------------------------

 Alpha MOs
 -- Occupied --
-14.334 -10.234 -10.230 -10.220 -10.219 -10.219 -10.216  -0.979
 -0.867  -0.759  -0.673  -0.616  -0.580  -0.544  -0.524  -0.475
 -0.448  -0.415  -0.410  -0.366  -0.346  -0.309  -0.285  -0.267
 -0.188

 Beta MOs
 -- Occupied --
-14.333 -10.232 -10.229 -10.221 -10.220 -10.217 -10.204  -0.975
 -0.861  -0.751  -0.662  -0.611  -0.576  -0.537  -0.518  -0.469
 -0.444  -0.412  -0.404  -0.358  -0.342  -0.302  -0.274  -0.262

          Ground-State Mulliken Net Atomic Charges

     Atom                 Charge (a.u.)    Spin (a.u.)
  --------------------------------------------------------
      1 C                    -0.289896       0.103175
      2 C                    -0.055577      -0.154473
      3 C                    -0.152121       0.979541
      4 C                    -0.027510      -0.115422
      5 C                    -0.052450       0.053711
      6 N                    -0.171402       0.035774
      7 H                     0.144217       0.003573
      8 H                     0.138516       0.005181
      9 H                     0.130788      -0.023155
     10 H                     0.133613       0.023574
     11 H                     0.131163       0.001079
     12 C                    -0.062679       0.087134
     13 H                     0.133337       0.000306
  --------------------------------------------------------
  Sum of atomic charges =    -0.000000

                    Cartesian Multipole Moments
 -----------------------------------------------------------------
    Charge (ESU x 10^10)
                -0.0000
    Dipole Moment (Debye)
         X      -1.2264      Y      -1.7230      Z       0.9055
       Tot       2.3006
    Quadrupole Moments (Debye-Ang)
        XX     -39.2439     XY      -5.2152     YY     -45.4318
        XZ       2.5016     YZ       0.6437     ZZ     -40.3784

 Total job time:  201.21s(wall), 199.89s(cpu)
        *  Thank you very much for using Q-Chem.  Have a nice day.  *
