 Q-Chem 5.0, Q-Chem, Inc., Pleasanton, CA (2017)
 Q-Chem 5.0.2 for Intel X86 EM64T Linux

User input:
--------------------------------------------------------------
$molecule
0 2
C        1.1779031116    0.2840944244    0.3689960102
C        0.7676713006   -0.9972239665   -0.3571738784
C       -0.5530491205   -0.9266570571   -0.8295145818
C       -1.0772296443    0.1603414448    0.1071820102
C       -0.4849925830    1.4655012319   -0.4297986839
N        0.7935087085    1.5245718443   -0.3171320011
H        2.1730474453    0.2829729468    0.8041510424
H        1.4809258936   -1.8021782831   -0.5110664618
H       -1.0736281102   -1.5425663514   -1.5493331602
H       -2.1346407866    0.1481677277    0.3693341658
H       -1.0515168464    2.2247759025   -0.9646693744
C        0.0078438060   -0.1986748046    1.1496575872
H       -0.0692158692   -0.6513793268    2.1283233625
$end

$rem
method                b3lyp
basis                 6-31+g(d,p)
unrestricted          true
symmetry              off
sym_ignore            true
incdft                false
incfock               0
scf_convergence       8
thresh                14
jobtype               rpath
scf_guess             core
scf_guess_mix         5
scf_algorithm         diis
max_scf_cycles        100
rpath_direction       1
rpath_tol_displacement 1000
rpath_max_cycles      50
geom_opt_max_cycles   300
geom_opt_hessian      read
$end

--------------------------------------------------------------

   22    -286.8475423808      6.53E-09 Convergence criterion met
 Total energy in the final basis set = -286.84754238
   22    -286.8492539973      4.16E-09 Convergence criterion met
 Total energy in the final basis set = -286.84925400
   22    -286.8492265026      3.77E-09 Convergence criterion met
 Total energy in the final basis set = -286.84922650
   22    -286.8492565389      4.07E-09 Convergence criterion met
 Total energy in the final basis set = -286.84925654
   21    -286.8538323496      8.30E-09 Convergence criterion met
 Total energy in the final basis set = -286.85383235
   21    -286.8537755236      8.35E-09 Convergence criterion met
 Total energy in the final basis set = -286.85377552
   21    -286.8538406668      8.30E-09 Convergence criterion met
 Total energy in the final basis set = -286.85384067
   22    -286.8592437660      2.74E-09 Convergence criterion met
 Total energy in the final basis set = -286.85875760
   21    -286.8593051910      5.19E-09 Convergence criterion met
 Total energy in the final basis set = -286.85930519
   21    -286.8592857353      4.78E-09 Convergence criterion met
 Total energy in the final basis set = -286.85928574
   21    -286.8593114603      5.22E-09 Convergence criterion met
 Total energy in the final basis set = -286.85931146
   21    -286.8566581192      6.26E-09 Convergence criterion met
 Total energy in the final basis set = -286.85665812
   21    -286.8593142214      5.27E-09 Convergence criterion met
 Total energy in the final basis set = -286.85931422
   21    -286.8593139017      5.22E-09 Convergence criterion met
 Total energy in the final basis set = -286.85931390
   21    -286.8593151535      5.25E-09 Convergence criterion met
 Total energy in the final basis set = -286.85931515

                    Orbital Energies (a.u.)
 --------------------------------------------------------------

 Alpha MOs
 -- Occupied --
-14.334 -10.234 -10.230 -10.220 -10.219 -10.219 -10.216  -0.979
 -0.867  -0.759  -0.673  -0.616  -0.580  -0.544  -0.524  -0.475
 -0.448  -0.415  -0.410  -0.366  -0.346  -0.309  -0.285  -0.267
 -0.188

 Beta MOs
 -- Occupied --
-14.333 -10.232 -10.229 -10.221 -10.220 -10.217 -10.204  -0.975
 -0.861  -0.751  -0.662  -0.611  -0.576  -0.537  -0.518  -0.469
 -0.444  -0.412  -0.404  -0.358  -0.342  -0.302  -0.274  -0.262

          Ground-State Mulliken Net Atomic Charges

     Atom                 Charge (a.u.)    Spin (a.u.)
  --------------------------------------------------------
      1 C                    -0.289896       0.103176
      2 C                    -0.055577      -0.154474
      3 C                    -0.152121       0.979542
      4 C                    -0.027510      -0.115422
      5 C                    -0.052450       0.053711
      6 N                    -0.171402       0.035775
      7 H                     0.144217       0.003572
      8 H                     0.138516       0.005182
      9 H                     0.130788      -0.023156
     10 H                     0.133613       0.023574
     11 H                     0.131163       0.001080
     12 C                    -0.062679       0.087134
     13 H                     0.133337       0.000306
  --------------------------------------------------------
  Sum of atomic charges =    -0.000000

                    Cartesian Multipole Moments
 -----------------------------------------------------------------
    Charge (ESU x 10^10)
                -0.0000
    Dipole Moment (Debye)
         X      -1.2264      Y      -1.7230      Z       0.9055
       Tot       2.3006
    Quadrupole Moments (Debye-Ang)
        XX     -39.2357     XY      -5.2068     YY     -45.4243
        XZ       2.5015     YZ       0.6459     ZZ     -40.3827

             Standard Nuclear Orientation (Angstroms)
    I     Atom           X                Y                Z
 ----------------------------------------------------------------
    1      C       1.1779031116     0.2840944244     0.3689960102
    2      C       0.7676713006    -0.9972239665    -0.3571738784
    3      C      -0.5530491205    -0.9266570571    -0.8295145818
    4      C      -1.0772296443     0.1603414448     0.1071820102
    5      C      -0.4849925830     1.4655012319    -0.4297986839
    6      N       0.7935087085     1.5245718443    -0.3171320011
    7      H       2.1730474453     0.2829729468     0.8041510424
    8      H       1.4809258936    -1.8021782831    -0.5110664618
    9      H      -1.0736281102    -1.5425663514    -1.5493331602
   10      H      -2.1346407866     0.1481677277     0.3693341658
   11      H      -1.0515168464     2.2247759025    -0.9646693744
   12      C       0.0078438060    -0.1986748046     1.1496575872
   13      H      -0.0692158692    -0.6513793268     2.1283233625
 ----------------------------------------------------------------

 Total job time:  7434.95s(wall), 28876.10s(cpu)
        *  Thank you very much for using Q-Chem.  Have a nice day.  *
