 Q-Chem 5.0, Q-Chem, Inc., Pleasanton, CA (2017)
 Q-Chem 5.0.2 for Intel X86 EM64T Linux

User input:
--------------------------------------------------------------
$molecule
0 2
C        1.2032804335    0.3392835338    0.3347916079
C        0.6649463801   -1.0859383710   -0.1430045256
C       -0.6133333111   -0.9511261078   -0.8277092227
C       -1.0806741231    0.1429744421    0.1298472353
C       -0.5137572663    1.4334798190   -0.4498609995
N        0.7650536376    1.5127517671   -0.3783312743
H        2.2200148702    0.3337758563    0.7142682221
H        1.3730976292   -1.9076632467   -0.1834248102
H       -0.9311976298   -1.1928180351   -1.8392184772
H       -2.1199363622    0.1495444324    0.4657830881
H       -1.1027479579    2.1653504802   -1.0004630789
C        0.0918833559   -0.3236783934    1.0663264960
H        0.0433703445   -0.6159361774    2.1109957384
$end

$rem
method                b3lyp
basis                 6-31g(d)
unrestricted          true
symmetry              off
sym_ignore            true
incdft                false
incfock               0
scf_convergence       8
thresh                14
jobtype               opt
scf_guess             core
scf_guess_mix         5
scf_algorithm         diis
max_scf_cycles        100
geom_opt_max_cycles   300
$end

--------------------------------------------------------------

   20    -286.8383070666      8.09E-09 Convergence criterion met
 Total energy in the final basis set = -286.83830707

             Standard Nuclear Orientation (Angstroms)
    I     Atom           X                Y                Z
 ----------------------------------------------------------------
    1      C       1.2032459294     0.3391973390     0.3346105013
    2      C       0.6649579777    -1.0858932313    -0.1429279517
    3      C      -0.6133864524    -0.9512136048    -0.8278617436
    4      C      -1.0806369947     0.1427653032     0.1297581032
    5      C      -0.5136885281     1.4332116739    -0.4500366488
    6      N       0.7652460932     1.5123490674    -0.3791405000
    7      H       2.2197977028     0.3338952738     0.7145726306
    8      H       1.3728809849    -1.9078290518    -0.1830612541
    9      H      -0.9309221282    -1.1924953842    -1.8395863126
   10      H      -2.1198405083     0.1493128295     0.4658743792
   11      H      -1.1029750191     2.1657020476    -0.9994903586
   12      C       0.0918671170    -0.3235255426     1.0662567220
   13      H       0.0434538265    -0.6154767204     2.1110324324
 ----------------------------------------------------------------

   15    -286.8383073047      5.48E-09 Convergence criterion met
 Total energy in the final basis set = -286.83830730
 Final energy is   -286.838307304711
 **  OPTIMIZATION CONVERGED  **

                    Orbital Energies (a.u.)
 --------------------------------------------------------------

 Alpha MOs
 -- Occupied --
-14.320 -10.224 -10.220 -10.210 -10.209 -10.208 -10.206  -0.968
 -0.856  -0.749  -0.664  -0.606  -0.571  -0.535  -0.516  -0.467
 -0.439  -0.405  -0.400  -0.356  -0.336  -0.298  -0.273  -0.256
 -0.182

 Beta MOs
 -- Occupied --
-14.319 -10.222 -10.219 -10.211 -10.209 -10.207 -10.193  -0.964
 -0.850  -0.741  -0.652  -0.601  -0.567  -0.528  -0.511  -0.461
 -0.434  -0.403  -0.394  -0.348  -0.332  -0.292  -0.262  -0.250

          Ground-State Mulliken Net Atomic Charges

     Atom                 Charge (a.u.)    Spin (a.u.)
  --------------------------------------------------------
      1 C                    -0.019172       0.097052
      2 C                    -0.163346      -0.095916
      3 C                    -0.066216       0.888455
      4 C                    -0.258213      -0.065713
      5 C                     0.088771       0.047066
      6 N                    -0.342317       0.039288
      7 H                     0.151435       0.002835
      8 H                     0.147203       0.005290
      9 H                     0.136266      -0.019362
     10 H                     0.142847       0.022703
     11 H                     0.143028       0.001378
     12 C                    -0.108352       0.077703
     13 H                     0.148065      -0.000778
  --------------------------------------------------------
  Sum of atomic charges =    -0.000000

                    Cartesian Multipole Moments
 -----------------------------------------------------------------
    Charge (ESU x 10^10)
                -0.0000
    Dipole Moment (Debye)
         X      -1.1237      Y      -1.5134      Z       0.8050
       Tot       2.0496
    Quadrupole Moments (Debye-Ang)
        XX     -38.4768     XY      -4.6405     YY     -43.6853
        XZ       2.3452     YZ       0.5155     ZZ     -39.1573

 Total job time:  26.13s(wall), 101.75s(cpu)
        *  Thank you very much for using Q-Chem.  Have a nice day.  *
