 Q-Chem 5.0, Q-Chem, Inc., Pleasanton, CA (2017)
 Q-Chem 5.0.2 for Intel X86 EM64T Linux

User input:
--------------------------------------------------------------
$molecule
0 2
C        1.1448619693    0.2990204162    0.3318043357
C        0.7015740380   -1.0530624457   -0.2849181546
C       -0.6006330937   -1.1336764146   -0.8281514810
C       -1.1225918345    0.2586374771    0.1745699249
C       -0.5028003934    1.4800157619   -0.4267679966
N        0.7877521199    1.4829284343   -0.3928005104
H        2.1150813374    0.2901460171    0.8052963072
H        1.5469438729   -1.6940171163   -0.5365776852
H       -0.8251969367   -1.7653182510   -1.7139319785
H       -2.1218070397    0.4374985998    0.6211094714
H       -1.0314989926    2.3190617285   -0.8968015336
C       -0.0165339895   -0.2528354337    1.0686326778
H       -0.1185237522   -0.6966530407    2.0474926599
$end

$rem
method                b3lyp
basis                 6-31g(d)
unrestricted          true
symmetry              off
sym_ignore            true
incdft                false
incfock               0
scf_convergence       8
thresh                14
jobtype               ts
scf_guess             read
scf_algorithm         diis
max_scf_cycles        100
geom_opt_max_cycles   500
geom_opt_dmax         100
geom_opt_tol_gradient 10
geom_opt_hessian      read
$end

--------------------------------------------------------------

    2    -286.7943188305      9.06E-10 Convergence criterion met
 Total energy in the final basis set = -286.79431883
   14    -286.7955292986      6.77E-09 Convergence criterion met
 Total energy in the final basis set = -286.79552930
   14    -286.7971723177      7.81E-09 Convergence criterion met
 Total energy in the final basis set = -286.79717232
   14    -286.7995376474      7.12E-09 Convergence criterion met
 Total energy in the final basis set = -286.79953765
   14    -286.8025125091      7.02E-09 Convergence criterion met
 Total energy in the final basis set = -286.80251251
   14    -286.8059650589      7.49E-09 Convergence criterion met
 Total energy in the final basis set = -286.80596506
   14    -286.8096622047      6.75E-09 Convergence criterion met
 Total energy in the final basis set = -286.80966220
   14    -286.8132335719      6.28E-09 Convergence criterion met
   11    -286.8244838288      6.18E-09 Convergence criterion met
 Total energy in the final basis set = -286.82448383
   13    -286.8244772796      3.38E-09 Convergence criterion met
 Total energy in the final basis set = -286.82447728
   13    -286.8244838571      3.38E-09 Convergence criterion met
 Total energy in the final basis set = -286.82448386
    9    -286.8244838601      5.47E-09 Convergence criterion met
 Total energy in the final basis set = -286.82448386
   13    -286.8244729849      3.93E-09 Convergence criterion met
 Total energy in the final basis set = -286.82447298
   12    -286.8244838647      9.17E-09 Convergence criterion met
 Total energy in the final basis set = -286.82448386

             Standard Nuclear Orientation (Angstroms)
    I     Atom           X                Y                Z
 ----------------------------------------------------------------
    1      C       1.1765739846     0.2841915378     0.3673198532
    2      C       0.7645724161    -0.9992421186    -0.3524262301
    3      C      -0.5556124114    -0.9322060329    -0.8198171957
    4      C      -1.0775357045     0.1591578107     0.1126633696
    5      C      -0.4838009420     1.4614867737    -0.4308332550
    6      N       0.7935170019     1.5227590369    -0.3250521132
    7      H       2.1730477493     0.2851892528     0.8020325173
    8      H       1.4794242213    -1.8037937785    -0.5077299310
    9      H      -1.0651906309    -1.5244964285    -1.5678084166
   10      H      -2.1351799942     0.1486692953     0.3774027606
   11      H      -1.0525514937     2.2177302121    -0.9695750721
   12      C       0.0071944864    -0.1893181727     1.1559297967
   13      H      -0.0678313775    -0.6583816552     2.1268499531
 ----------------------------------------------------------------

    8    -286.8244838749      3.49E-09 Convergence criterion met
 Total energy in the final basis set = -286.82448387
 Final energy is   -286.824483874867
 **  OPTIMIZATION CONVERGED  **

                    Orbital Energies (a.u.)
 --------------------------------------------------------------

 Alpha MOs
 -- Occupied --
-14.314 -10.224 -10.218 -10.216 -10.212 -10.209 -10.193  -0.959
 -0.836  -0.739  -0.685  -0.590  -0.575  -0.538  -0.513  -0.461
 -0.433  -0.413  -0.398  -0.367  -0.345  -0.284  -0.271  -0.264
 -0.145

 Beta MOs
 -- Occupied --
-14.313 -10.224 -10.219 -10.218 -10.210 -10.204 -10.184  -0.955
 -0.828  -0.735  -0.673  -0.586  -0.566  -0.531  -0.510  -0.453
 -0.429  -0.408  -0.396  -0.362  -0.340  -0.274  -0.261  -0.251

          Ground-State Mulliken Net Atomic Charges

     Atom                 Charge (a.u.)    Spin (a.u.)
  --------------------------------------------------------
      1 C                    -0.028414       0.004154
      2 C                    -0.132042      -0.216273
      3 C                    -0.081746       0.664210
      4 C                    -0.258572      -0.069090
      5 C                     0.091854       0.008613
      6 N                    -0.338945       0.064237
      7 H                     0.146689       0.004272
      8 H                     0.147977       0.011866
      9 H                     0.141954      -0.026903
     10 H                     0.137566       0.010532
     11 H                     0.143640       0.001581
     12 C                    -0.128433       0.570629
     13 H                     0.158469      -0.027829
  --------------------------------------------------------
  Sum of atomic charges =     0.000000

                    Cartesian Multipole Moments
 -----------------------------------------------------------------
    Charge (ESU x 10^10)
                 0.0000
    Dipole Moment (Debye)
         X      -1.1698      Y      -1.9340      Z       0.7567
       Tot       2.3836
    Quadrupole Moments (Debye-Ang)
        XX     -38.1221     XY      -4.5351     YY     -43.1622
        XZ       2.1086     YZ       0.5915     ZZ     -39.6848

 Total job time:  350.36s(wall), 1303.05s(cpu)
        *  Thank you very much for using Q-Chem.  Have a nice day.  *
