 Q-Chem 5.0, Q-Chem, Inc., Pleasanton, CA (2017)
 Q-Chem 5.0.2 for Intel X86 EM64T Linux

User input:
--------------------------------------------------------------
$molecule
0 2
C        1.1779031116    0.2840944244    0.3689960102
C        0.7676713006   -0.9972239665   -0.3571738784
C       -0.5530491205   -0.9266570571   -0.8295145818
C       -1.0772296443    0.1603414448    0.1071820102
C       -0.4849925830    1.4655012319   -0.4297986839
N        0.7935087085    1.5245718443   -0.3171320011
H        2.1730474453    0.2829729468    0.8041510424
H        1.4809258936   -1.8021782831   -0.5110664618
H       -1.0736281102   -1.5425663514   -1.5493331602
H       -2.1346407866    0.1481677277    0.3693341658
H       -1.0515168464    2.2247759025   -0.9646693744
C        0.0078438060   -0.1986748046    1.1496575872
H       -0.0692158692   -0.6513793268    2.1283233625
$end

$rem
method                b3lyp
basis                 6-31+g(d,p)
unrestricted          true
symmetry              off
sym_ignore            true
incdft                false
incfock               0
scf_convergence       8
thresh                14
jobtype               freq
scf_guess             read
scf_algorithm         diis
max_scf_cycles        100
$end

--------------------------------------------------------------

             Standard Nuclear Orientation (Angstroms)
    I     Atom           X                Y                Z
 ----------------------------------------------------------------
    1      C       1.1779031116     0.2840944244     0.3689960102
    2      C       0.7676713006    -0.9972239665    -0.3571738784
    3      C      -0.5530491205    -0.9266570571    -0.8295145818
    4      C      -1.0772296443     0.1603414448     0.1071820102
    5      C      -0.4849925830     1.4655012319    -0.4297986839
    6      N       0.7935087085     1.5245718443    -0.3171320011
    7      H       2.1730474453     0.2829729468     0.8041510424
    8      H       1.4809258936    -1.8021782831    -0.5110664618
    9      H      -1.0736281102    -1.5425663514    -1.5493331602
   10      H      -2.1346407866     0.1481677277     0.3693341658
   11      H      -1.0515168464     2.2247759025    -0.9646693744
   12      C       0.0078438060    -0.1986748046     1.1496575872
   13      H      -0.0692158692    -0.6513793268     2.1283233625
 ----------------------------------------------------------------

    2    -286.8475423808      5.52E-10 Convergence criterion met
 Total energy in the final basis set = -286.84754238

                    Orbital Energies (a.u.)
 --------------------------------------------------------------

 Alpha MOs
 -- Occupied --
-14.330 -10.235 -10.230 -10.229 -10.226 -10.221 -10.206  -0.972
 -0.849  -0.751  -0.696  -0.601  -0.585  -0.548  -0.522  -0.472
 -0.444  -0.424  -0.409  -0.378  -0.356  -0.296  -0.284  -0.277
 -0.157

 Beta MOs
 -- Occupied --
-14.329 -10.235 -10.231 -10.230 -10.222 -10.217 -10.197  -0.968
 -0.842  -0.747  -0.684  -0.598  -0.577  -0.541  -0.519  -0.463
 -0.441  -0.419  -0.407  -0.373  -0.351  -0.287  -0.275  -0.265

          Ground-State Mulliken Net Atomic Charges

     Atom                 Charge (a.u.)    Spin (a.u.)
  --------------------------------------------------------
      1 C                    -0.133191      -0.021292
      2 C                    -0.103043      -0.233743
      3 C                    -0.141175       0.728697
      4 C                     0.002612      -0.101964
      5 C                    -0.070296      -0.002356
      6 N                    -0.179666       0.062412
      7 H                     0.138959       0.004313
      8 H                     0.139224       0.010302
      9 H                     0.139082      -0.028844
     10 H                     0.129090       0.010582
     11 H                     0.132712       0.001552
     12 C                    -0.200204       0.594697
     13 H                     0.145896      -0.024357
  --------------------------------------------------------
  Sum of atomic charges =    -0.000000

                    Cartesian Multipole Moments
 -----------------------------------------------------------------
    Charge (ESU x 10^10)
                -0.0000
    Dipole Moment (Debye)
         X      -1.2887      Y      -2.0808      Z       0.8788
       Tot       2.6005
    Quadrupole Moments (Debye-Ang)
        XX     -38.8854     XY      -5.0411     YY     -44.9107
        XZ       2.2464     YZ       0.6036     ZZ     -41.5565

 Frequency:      -652.54                 332.72                 392.69
 Force Cnst:      1.3574                 0.0764                 0.1031
 Red. Mass:       5.4108                 1.1718                 1.1344
 IR Intens:       34.217                 21.629                 29.675
 Frequency:       439.25                 482.98                 606.65
 Force Cnst:      0.4247                 0.5179                 0.9997
 Red. Mass:       3.7356                 3.7683                 4.6105
 IR Intens:        7.176                  6.258                 15.051
 Frequency:       740.73                 784.95                 826.50
 Force Cnst:      1.9204                 2.5500                 0.8693
 Red. Mass:       5.9406                 7.0244                 2.1599
 IR Intens:        3.406                  5.090                 17.261
 Frequency:       853.04                 882.61                 893.43
 Force Cnst:      1.7208                 1.0166                 0.6949
 Red. Mass:       4.0136                 2.2150                 1.4777
 IR Intens:        9.324                  8.251                  2.763
 Frequency:       914.23                 925.08                 958.06
 Force Cnst:      0.9836                 0.8275                 1.0834
 Red. Mass:       1.9974                 1.6412                 2.0033
 IR Intens:        1.337                 20.231                  2.692
 Frequency:       972.80                1026.57                1083.71
 Force Cnst:      1.1272                 1.2867                 1.2155
 Red. Mass:       2.0216                 2.0723                 1.7565
 IR Intens:        2.491                  3.889                  5.270
 Frequency:      1140.63                1175.88                1215.38
 Force Cnst:      1.2946                 1.4804                 1.3394
 Red. Mass:       1.6889                 1.8172                 1.5390
 IR Intens:       15.424                  1.884                  5.877
 Frequency:      1242.02                1272.51                1318.94
 Force Cnst:      1.4522                 1.2015                 1.5264
 Red. Mass:       1.5978                 1.2593                 1.4893
 IR Intens:        6.779                  1.018                  9.334
 Frequency:      1321.74                1404.35                1626.36
 Force Cnst:      1.8429                 3.1353                11.6788
 Red. Mass:       1.7904                 2.6982                 7.4940
 IR Intens:       12.937                  1.569                 44.219
 Frequency:      3146.92                3184.26                3185.81
 Force Cnst:      6.3604                 6.5260                 6.5306
 Red. Mass:       1.0901                 1.0924                 1.0921
 IR Intens:       17.786                 21.866                  4.761
 Frequency:      3195.31                3257.86                3263.40
 Force Cnst:      6.5739                 6.8474                 6.8802
 Red. Mass:       1.0928                 1.0950                 1.0965
 IR Intens:       19.653                  1.122                  0.548

 STANDARD THERMODYNAMIC QUANTITIES AT   298.15 K  AND     1.00 ATM

   This Molecule has  1 Imaginary Frequencies
   Zero point vibrational energy:       62.997 kcal/mol

   Atom    1 Element C  Has Mass   12.00000
   Atom    2 Element C  Has Mass   12.00000
   Atom    3 Element C  Has Mass   12.00000
   Atom    4 Element C  Has Mass   12.00000
   Atom    5 Element C  Has Mass   12.00000
   Atom    6 Element N  Has Mass   14.00307
   Atom    7 Element H  Has Mass    1.00783
   Atom    8 Element H  Has Mass    1.00783
   Atom    9 Element H  Has Mass    1.00783
   Atom   10 Element H  Has Mass    1.00783
   Atom   11 Element H  Has Mass    1.00783
   Atom   12 Element C  Has Mass   12.00000
   Atom   13 Element H  Has Mass    1.00783
   Molecular Mass:    92.050050 amu
   Principal axes and moments of inertia in amu*Bohr^2:
                             1           2           3
    Eigenvalues --      376.98728   456.61253   566.62130
          X               0.10535     0.95417    -0.28010
          Y               0.99440    -0.09884     0.03732
          Z              -0.00792     0.28246     0.95925
   Rotational Symmetry Number is   1
   The Molecule is an Asymmetric Top
   Translational Enthalpy:        0.889 kcal/mol
   Rotational Enthalpy:           0.889 kcal/mol
   Vibrational Enthalpy:         64.346 kcal/mol
   gas constant (RT):             0.592 kcal/mol
   Translational Entropy:        39.471  cal/mol.K
   Rotational Entropy:           26.081  cal/mol.K
   Vibrational Entropy:           6.237  cal/mol.K

   Total Enthalpy:               66.716 kcal/mol
   Total Entropy:                71.788  cal/mol.K

 Total job time:  559.85s(wall), 557.81s(cpu)
        *  Thank you very much for using Q-Chem.  Have a nice day.  *
