 Q-Chem 5.0, Q-Chem, Inc., Pleasanton, CA (2017)
 Q-Chem 5.0.2 for Intel X86 EM64T Linux

User input:
--------------------------------------------------------------
$molecule
0 2
C        1.1448619693    0.2990204162    0.3318043357
C        0.7015740380   -1.0530624457   -0.2849181546
C       -0.6006330937   -1.1336764146   -0.8281514810
C       -1.1225918345    0.2586374771    0.1745699249
C       -0.5028003934    1.4800157619   -0.4267679966
N        0.7877521199    1.4829284343   -0.3928005104
H        2.1150813374    0.2901460171    0.8052963072
H        1.5469438729   -1.6940171163   -0.5365776852
H       -0.8251969367   -1.7653182510   -1.7139319785
H       -2.1218070397    0.4374985998    0.6211094714
H       -1.0314989926    2.3190617285   -0.8968015336
C       -0.0165339895   -0.2528354337    1.0686326778
H       -0.1185237522   -0.6966530407    2.0474926599
$end

$rem
method                b3lyp
basis                 6-31g(d)
unrestricted          true
symmetry              off
sym_ignore            true
incdft                false
incfock               0
scf_convergence       8
thresh                14
jobtype               sp
scf_guess             core
scf_guess_mix         5
scf_algorithm         diis
max_scf_cycles        100
$end

--------------------------------------------------------------

             Standard Nuclear Orientation (Angstroms)
    I     Atom           X                Y                Z
 ----------------------------------------------------------------
    1      C       1.1448619693     0.2990204162     0.3318043357
    2      C       0.7015740380    -1.0530624457    -0.2849181546
    3      C      -0.6006330937    -1.1336764146    -0.8281514810
    4      C      -1.1225918345     0.2586374771     0.1745699249
    5      C      -0.5028003934     1.4800157619    -0.4267679966
    6      N       0.7877521199     1.4829284343    -0.3928005104
    7      H       2.1150813374     0.2901460171     0.8052963072
    8      H       1.5469438729    -1.6940171163    -0.5365776852
    9      H      -0.8251969367    -1.7653182510    -1.7139319785
   10      H      -2.1218070397     0.4374985998     0.6211094714
   11      H      -1.0314989926     2.3190617285    -0.8968015336
   12      C      -0.0165339895    -0.2528354337     1.0686326778
   13      H      -0.1185237522    -0.6966530407     2.0474926599
 ----------------------------------------------------------------

   21    -286.7943188304      4.63E-09 Convergence criterion met
 Total energy in the final basis set = -286.79431883

                    Orbital Energies (a.u.)
 --------------------------------------------------------------

 Alpha MOs
 -- Occupied --
-14.316 -10.225 -10.224 -10.220 -10.217 -10.216 -10.214  -0.963
 -0.839  -0.734  -0.692  -0.590  -0.580  -0.536  -0.513  -0.462
 -0.425  -0.407  -0.398  -0.373  -0.330  -0.289  -0.269  -0.264
 -0.157

 Beta MOs
 -- Occupied --
-14.315 -10.226 -10.223 -10.217 -10.217 -10.215 -10.202  -0.959
 -0.832  -0.732  -0.679  -0.584  -0.574  -0.531  -0.508  -0.454
 -0.421  -0.402  -0.396  -0.369  -0.317  -0.279  -0.263  -0.254

          Ground-State Mulliken Net Atomic Charges

     Atom                 Charge (a.u.)    Spin (a.u.)
  --------------------------------------------------------
      1 C                     0.003550       0.037487
      2 C                    -0.166433      -0.147813
      3 C                    -0.101729       0.795390
      4 C                    -0.255211      -0.074577
      5 C                     0.084997       0.043454
      6 N                    -0.340229       0.025065
      7 H                     0.149626       0.004176
      8 H                     0.156359       0.005485
      9 H                     0.137324       0.003378
     10 H                     0.142548       0.006326
     11 H                     0.142782      -0.001146
     12 C                    -0.117621       0.316445
     13 H                     0.164038      -0.013670
  --------------------------------------------------------
  Sum of atomic charges =     0.000000

                    Cartesian Multipole Moments
 -----------------------------------------------------------------
    Charge (ESU x 10^10)
                 0.0000
    Dipole Moment (Debye)
         X      -0.7819      Y      -1.4334      Z       1.1147
       Tot       1.9770
    Quadrupole Moments (Debye-Ang)
        XX     -39.0373     XY      -5.2784     YY     -43.0567
        XZ       1.1807     YZ       1.2805     ZZ     -39.3414

 Total job time:  17.54s(wall), 54.33s(cpu)
        *  Thank you very much for using Q-Chem.  Have a nice day.  *
