 Q-Chem 5.0, Q-Chem, Inc., Pleasanton, CA (2017)
 Q-Chem 5.0.2 for Intel X86 EM64T Linux

User input:
--------------------------------------------------------------
$molecule
0 2
C        1.5440404333    0.5861293134   -0.1642656935
C        0.8932240621   -0.7432938957    0.0274589318
C       -0.4118021088   -0.6570999196   -0.6948209223
C       -1.0183475571    0.6294805270    0.8815113260
C       -0.6032954815    0.9022185475   -0.5702328577
N        0.7481623825    1.5150230143   -0.5423615294
H        2.5983866781    0.7809973401    0.0292120357
H        1.4557634281   -1.6712684557    0.0633870647
H       -0.8129686200   -1.3478195967   -1.4308827970
H       -1.9834849206    0.8770013627    1.3088557403
H       -1.2899603538    1.4326196268   -1.2296229830
C       -0.4463686444   -0.7299036655    0.8394551851
H       -0.6733492982   -1.5740841980    1.4823064987
$end

$rem
method                b3lyp
basis                 6-31g(d)
unrestricted          true
symmetry              off
sym_ignore            true
incdft                false
incfock               0
scf_convergence       8
thresh                14
jobtype               opt
scf_guess             read
scf_algorithm         diis
max_scf_cycles        100
geom_opt_tol_gradient 600
geom_opt_tol_displacement 2400
geom_opt_tol_energy   200
geom_opt_max_cycles   100
$end

--------------------------------------------------------------

             Standard Nuclear Orientation (Angstroms)
    I     Atom           X                Y                Z
 ----------------------------------------------------------------
    1      C       1.5440404333     0.5861293134    -0.1642656935
    2      C       0.8932240621    -0.7432938957     0.0274589318
    3      C      -0.4118021088    -0.6570999196    -0.6948209223
    4      C      -1.0183475571     0.6294805270     0.8815113260
    5      C      -0.6032954815     0.9022185475    -0.5702328577
    6      N       0.7481623825     1.5150230143    -0.5423615294
    7      H       2.5983866781     0.7809973401     0.0292120357
    8      H       1.4557634281    -1.6712684557     0.0633870647
    9      H      -0.8129686200    -1.3478195967    -1.4308827970
   10      H      -1.9834849206     0.8770013627     1.3088557403
   11      H      -1.2899603538     1.4326196268    -1.2296229830
   12      C      -0.4463686444    -0.7299036655     0.8394551851
   13      H      -0.6733492982    -1.5740841980     1.4823064987
 ----------------------------------------------------------------

    2    -286.8365048672      1.75E-09 Convergence criterion met
 Total energy in the final basis set = -286.83650487
 Final energy is   -286.836504867172
 **  OPTIMIZATION CONVERGED  **

                    Orbital Energies (a.u.)
 --------------------------------------------------------------

 Alpha MOs
 -- Occupied --
-14.317 -10.220 -10.220 -10.215 -10.212 -10.211 -10.194  -0.964
 -0.858  -0.746  -0.657  -0.608  -0.575  -0.540  -0.512  -0.463
 -0.429  -0.412  -0.388  -0.366  -0.329  -0.315  -0.266  -0.256
 -0.174

 Beta MOs
 -- Occupied --
-14.317 -10.221 -10.220 -10.216 -10.211 -10.210 -10.181  -0.961
 -0.854  -0.737  -0.646  -0.602  -0.571  -0.538  -0.501  -0.461
 -0.425  -0.406  -0.384  -0.362  -0.317  -0.303  -0.263  -0.254

          Ground-State Mulliken Net Atomic Charges

     Atom                 Charge (a.u.)    Spin (a.u.)
  --------------------------------------------------------
      1 C                     0.096404       0.006646
      2 C                    -0.192126       0.036582
      3 C                    -0.107116       0.107632
      4 C                    -0.071391       0.952365
      5 C                    -0.099798      -0.043308
      6 N                    -0.337125       0.012559
      7 H                     0.143745       0.003950
      8 H                     0.148651       0.001441
      9 H                     0.149546       0.008569
     10 H                     0.139452      -0.039406
     11 H                     0.141896       0.005407
     12 C                    -0.161767      -0.052797
     13 H                     0.149629       0.000361
  --------------------------------------------------------
  Sum of atomic charges =    -0.000000

                    Cartesian Multipole Moments
 -----------------------------------------------------------------
    Charge (ESU x 10^10)
                 0.0000
    Dipole Moment (Debye)
         X      -0.6273      Y      -2.7630      Z       0.1066
       Tot       2.8354
    Quadrupole Moments (Debye-Ang)
        XX     -36.7847     XY      -2.5594     YY     -43.5417
        XZ       0.9805     YZ       0.4437     ZZ     -40.9480

 Total job time:  4.49s(wall), 14.56s(cpu)
        *  Thank you very much for using Q-Chem.  Have a nice day.  *
