 Q-Chem 5.0, Q-Chem, Inc., Pleasanton, CA (2017)
 Q-Chem 5.0.2 for Intel X86 EM64T Linux

User input:
--------------------------------------------------------------
$molecule
0 2
C        1.6830456856    0.4582708299   -0.3395986944
C        1.1436470348   -0.8364130219   -0.4024921417
C       -0.3443638597   -0.7189627821   -0.4459491539
C       -1.2138701825    0.6470516125    0.9266831490
C       -0.5147891376    0.8526342432   -0.4173237838
N        0.8097546779    1.4604556914   -0.3441852550
H        2.7469500807    0.6792510496   -0.2644296995
H        1.7122654691   -1.7597373488   -0.3792063384
H       -0.8317265337   -1.2911808354   -1.2463824331
H       -1.6233119030    1.3576989831    1.6382580500
H       -1.1171114703    1.3180037844   -1.2073662846
C       -1.0838117365   -0.6838856717    0.9011212100
H       -1.3666781248   -1.4831865341    1.5808713754
$end

$rem
method                b3lyp
basis                 6-31g(d)
unrestricted          true
symmetry              off
sym_ignore            true
incdft                false
incfock               0
scf_convergence       8
thresh                14
jobtype               opt
scf_guess             read
scf_algorithm         diis
max_scf_cycles        100
geom_opt_tol_gradient 600
geom_opt_tol_displacement 2400
geom_opt_tol_energy   200
geom_opt_max_cycles   100
$end

--------------------------------------------------------------

    2    -286.8754986296      2.04E-09 Convergence criterion met
 Total energy in the final basis set = -286.87549863
   11    -286.8755019532      6.03E-09 Convergence criterion met
 Total energy in the final basis set = -286.87550195

             Standard Nuclear Orientation (Angstroms)
    I     Atom           X                Y                Z
 ----------------------------------------------------------------
    1      C       1.6826277168     0.4584932350    -0.3389773121
    2      C       1.1423090016    -0.8357151210    -0.4012870174
    3      C      -0.3455040914    -0.7179304999    -0.4480766079
    4      C      -1.2129405635     0.6462256227     0.9261144559
    5      C      -0.5154837457     0.8524767306    -0.4188621283
    6      N       0.8091340232     1.4600803278    -0.3457614634
    7      H       2.7465402669     0.6787118627    -0.2625437024
    8      H       1.7103188466    -1.7592382884    -0.3757531965
    9      H      -0.8310730138    -1.2904520693    -1.2491929619
   10      H      -1.6197143886     1.3572368208     1.6388917323
   11      H      -1.1185947333     1.3186082842    -1.2076022660
   12      C      -1.0833887501    -0.6846841620     0.9009012223
   13      H      -1.3642305686    -1.4838127432     1.5821492454
 ----------------------------------------------------------------

   10    -286.8755024689      8.88E-09 Convergence criterion met
 Total energy in the final basis set = -286.87550247
 Final energy is   -286.875502468894
 **  OPTIMIZATION CONVERGED  **

                    Orbital Energies (a.u.)
 --------------------------------------------------------------

 Alpha MOs
 -- Occupied --
-14.328 -10.217 -10.216 -10.207 -10.203 -10.200 -10.195  -0.944
 -0.837  -0.752  -0.665  -0.618  -0.554  -0.523  -0.515  -0.481
 -0.428  -0.403  -0.386  -0.355  -0.341  -0.322  -0.270  -0.253
 -0.203

 Beta MOs
 -- Occupied --
-14.318 -10.219 -10.218 -10.203 -10.199 -10.198 -10.194  -0.932
 -0.831  -0.734  -0.665  -0.610  -0.549  -0.520  -0.512  -0.475
 -0.420  -0.396  -0.381  -0.343  -0.334  -0.301  -0.264  -0.246

          Ground-State Mulliken Net Atomic Charges

     Atom                 Charge (a.u.)    Spin (a.u.)
  --------------------------------------------------------
      1 C                     0.048159      -0.230756
      2 C                    -0.114798       0.693613
      3 C                    -0.193670      -0.053988
      4 C                    -0.075996       0.032260
      5 C                    -0.061689      -0.027722
      6 N                    -0.351437       0.516675
      7 H                     0.140585       0.007433
      8 H                     0.143361      -0.032163
      9 H                     0.148138       0.025251
     10 H                     0.137356       0.003603
     11 H                     0.151504       0.025297
     12 C                    -0.104873       0.033628
     13 H                     0.133359       0.006868
  --------------------------------------------------------
  Sum of atomic charges =    -0.000000

                    Cartesian Multipole Moments
 -----------------------------------------------------------------
    Charge (ESU x 10^10)
                -0.0000
    Dipole Moment (Debye)
         X      -0.4739      Y      -2.0989      Z       0.0946
       Tot       2.1539
    Quadrupole Moments (Debye-Ang)
        XX     -37.9743     XY      -2.8387     YY     -42.5401
        XZ      -0.4509     YZ       0.6494     ZZ     -39.8940

 Total job time:  26.03s(wall), 83.52s(cpu)
        *  Thank you very much for using Q-Chem.  Have a nice day.  *
