 Q-Chem 5.0, Q-Chem, Inc., Pleasanton, CA (2017)
 Q-Chem 5.0.2 for Intel X86 EM64T Linux

User input:
--------------------------------------------------------------
$molecule
0 2
C        1.2214628000    0.0608277424   -0.0323574882
C        0.6041937545   -0.8892691539    0.9978613589
C       -0.7100448091   -0.9517040170    0.7314628528
C       -0.9604582558   -0.0438604289   -0.4833593652
C       -0.5641358383    1.3805540591   -0.0205439714
N        0.6842111509    1.4753395300    0.2512287681
H        2.3050788893    0.0692712934   -0.1253073357
H        1.1469894326   -1.3575771368    1.8096238223
H       -1.4846406833   -1.4804139322    1.2733196261
H       -1.9110920790   -0.1470829796   -1.0053105181
H       -1.2477983797    2.2209653928    0.0835624350
C        0.3551212451   -0.3027131347   -1.2232575392
H        0.5611127723   -0.0343372340   -2.2569226456
$end

$rem
method                b3lyp
basis                 6-31+g(d,p)
unrestricted          true
symmetry              off
sym_ignore            true
incdft                false
incfock               0
scf_convergence       6
thresh                14
jobtype               sp
scf_guess             read
scf_algorithm         diis
max_scf_cycles        100
stability_analysis    true
max_cis_cycles        100
cis_n_roots           4
$end

--------------------------------------------------------------

             Standard Nuclear Orientation (Angstroms)
    I     Atom           X                Y                Z
 ----------------------------------------------------------------
    1      C       1.2214628000     0.0608277424    -0.0323574882
    2      C       0.6041937545    -0.8892691539     0.9978613589
    3      C      -0.7100448091    -0.9517040170     0.7314628528
    4      C      -0.9604582558    -0.0438604289    -0.4833593652
    5      C      -0.5641358383     1.3805540591    -0.0205439714
    6      N       0.6842111509     1.4753395300     0.2512287681
    7      H       2.3050788893     0.0692712934    -0.1253073357
    8      H       1.1469894326    -1.3575771368     1.8096238223
    9      H      -1.4846406833    -1.4804139322     1.2733196261
   10      H      -1.9110920790    -0.1470829796    -1.0053105181
   11      H      -1.2477983797     2.2209653928     0.0835624350
   12      C       0.3551212451    -0.3027131347    -1.2232575392
   13      H       0.5611127723    -0.0343372340    -2.2569226456
 ----------------------------------------------------------------

    2    -286.8724812405      3.05E-09 Convergence criterion met
 Total energy in the final basis set = -286.87248124

         TDDFT/TDA Excitation Energies
 ---------------------------------------------------

 Excited state   1: excitation energy (eV) =    3.1894
 Total energy for state  1:                  -286.75527196 au
    <S**2>     :  1.1677
    Trans. Mom.:  0.0442 X  -0.0437 Y  -0.0469 Z
    Strength   :     0.0004737860
    S(  1) --> V(  1) amplitude =  0.9317 alpha
    D( 24) --> V(  1) amplitude =  0.2030 beta

 Excited state   2: excitation energy (eV) =    3.8615
 Total energy for state  2:                  -286.73057277 au
    <S**2>     :  1.9196
    Trans. Mom.:  0.0336 X   0.0877 Y  -0.1210 Z
    Strength   :     0.0022204452
    D( 24) --> V(  1) amplitude =  0.4685 alpha
    S(  1) --> V(  1) amplitude =  0.1634 alpha
    S(  1) --> V(  2) amplitude = -0.2165 alpha
    S(  1) --> V(  3) amplitude = -0.2197 alpha
    D( 23) --> S(  1) amplitude =  0.2366 beta
    D( 24) --> S(  1) amplitude =  0.5572 beta
    D( 24) --> V(  1) amplitude = -0.4114 beta

 Excited state   3: excitation energy (eV) =    4.1239
 Total energy for state  3:                  -286.72092913 au
    <S**2>     :  1.3506
    Trans. Mom.:  0.0842 X   0.1215 Y  -0.2278 Z
    Strength   :     0.0074523179
    D( 23) --> V(  1) amplitude =  0.2313 alpha
    D( 24) --> V(  1) amplitude = -0.2510 alpha
    S(  1) --> V(  2) amplitude =  0.1988 alpha
    S(  1) --> V(  3) amplitude =  0.2118 alpha
    D( 24) --> S(  1) amplitude =  0.7448 beta
    D( 24) --> V(  1) amplitude =  0.3079 beta
    D( 24) --> V(  3) amplitude =  0.1789 beta

 Excited state   4: excitation energy (eV) =    4.2742
 Total energy for state  4:                  -286.71540798 au
    <S**2>     :  1.4807
    Trans. Mom.: -0.0652 X   0.0743 Y   0.2652 Z
    Strength   :     0.0083886328
    D( 23) --> V(  1) amplitude =  0.2935 alpha
    D( 23) --> S(  1) amplitude =  0.7575 beta
    D( 23) --> V(  1) amplitude = -0.3313 beta
    D( 24) --> S(  1) amplitude = -0.3104 beta

 ---------------------------------------------------

                    Orbital Energies (a.u.)
 --------------------------------------------------------------

 Alpha MOs
 -- Occupied --
-14.342 -10.239 -10.230 -10.220 -10.217 -10.206 -10.202  -0.965
 -0.829  -0.736  -0.717  -0.587  -0.580  -0.540  -0.521  -0.476
 -0.434  -0.416  -0.391  -0.380  -0.360  -0.311  -0.278  -0.266
 -0.210

 Beta MOs
 -- Occupied --
-14.340 -10.239 -10.230 -10.221 -10.205 -10.203 -10.202  -0.960
 -0.823  -0.734  -0.703  -0.585  -0.566  -0.537  -0.519  -0.465
 -0.431  -0.412  -0.390  -0.378  -0.355  -0.302  -0.273  -0.259

          Ground-State Mulliken Net Atomic Charges

     Atom                 Charge (a.u.)    Spin (a.u.)
  --------------------------------------------------------
      1 C                     0.022162      -0.087764
      2 C                    -0.143181      -0.004338
      3 C                    -0.113983       0.037602
      4 C                     0.014368      -0.079867
      5 C                    -0.128156       0.004436
      6 N                    -0.196032       0.090052
      7 H                     0.127751       0.001629
      8 H                     0.136131      -0.001146
      9 H                     0.136113      -0.002528
     10 H                     0.123724       0.001743
     11 H                     0.139105       0.001039
     12 C                    -0.255898       1.067154
     13 H                     0.137895      -0.028011
  --------------------------------------------------------
  Sum of atomic charges =     0.000000

                    Cartesian Multipole Moments
 -----------------------------------------------------------------
    Charge (ESU x 10^10)
                 0.0000
    Dipole Moment (Debye)
         X      -1.5029      Y      -1.0562      Z      -0.4611
       Tot       1.8939
    Quadrupole Moments (Debye-Ang)
        XX     -37.9544     XY      -3.5265     YY     -46.2414
        XZ      -0.0933     YZ      -3.2347     ZZ     -40.5466

 Total job time:  210.24s(wall), 206.59s(cpu)
        *  Thank you very much for using Q-Chem.  Have a nice day.  *
