 Q-Chem 5.0, Q-Chem, Inc., Pleasanton, CA (2017)
 Q-Chem 5.0.2 for Intel X86 EM64T Linux

User input:
--------------------------------------------------------------
$molecule
0 2
C        1.2200208590    0.2021307065   -0.0427257222
C        0.6251242694   -0.8655384578    0.8880243588
C       -0.6898767842   -0.9348101996    0.6091423496
C       -0.9584593657    0.0871177841   -0.5145908733
C       -0.5911206233    1.4621958467    0.0804508068
N        0.6511026457    1.5514332993    0.3671480094
H        2.3037575172    0.2321697063   -0.1300456364
H        1.1778668061   -1.4132523075    1.6436468416
H       -1.4477267316   -1.5467440418    1.0868727038
H       -1.9062384350    0.0051128684   -1.0448870829
H       -1.2946692225    2.2708487463    0.2662445315
C        0.3636754105   -0.1115510051   -1.2633594307
H        0.5465436545   -0.9391129459   -1.9459208559
$end

$rem
method                b3lyp
basis                 6-31+g(d,p)
unrestricted          true
symmetry              off
sym_ignore            true
incdft                false
incfock               0
scf_convergence       6
thresh                14
jobtype               sp
scf_guess             read
scf_algorithm         diis
max_scf_cycles        100
stability_analysis    true
max_cis_cycles        100
cis_n_roots           4
$end

--------------------------------------------------------------

             Standard Nuclear Orientation (Angstroms)
    I     Atom           X                Y                Z
 ----------------------------------------------------------------
    1      C       1.2200208590     0.2021307065    -0.0427257222
    2      C       0.6251242694    -0.8655384578     0.8880243588
    3      C      -0.6898767842    -0.9348101996     0.6091423496
    4      C      -0.9584593657     0.0871177841    -0.5145908733
    5      C      -0.5911206233     1.4621958467     0.0804508068
    6      N       0.6511026457     1.5514332993     0.3671480094
    7      H       2.3037575172     0.2321697063    -0.1300456364
    8      H       1.1778668061    -1.4132523075     1.6436468416
    9      H      -1.4477267316    -1.5467440418     1.0868727038
   10      H      -1.9062384350     0.0051128684    -1.0448870829
   11      H      -1.2946692225     2.2708487463     0.2662445315
   12      C       0.3636754105    -0.1115510051    -1.2633594307
   13      H       0.5465436545    -0.9391129459    -1.9459208559
 ----------------------------------------------------------------

    2    -286.8734741107      2.06E-09 Convergence criterion met
 Total energy in the final basis set = -286.87347411

         TDDFT/TDA Excitation Energies
 ---------------------------------------------------

 Excited state   1: excitation energy (eV) =    3.0947
 Total energy for state  1:                  -286.75974523 au
    <S**2>     :  1.1589
    Trans. Mom.:  0.1057 X  -0.0415 Y  -0.0145 Z
    Strength   :     0.0009928324
    S(  1) --> V(  1) amplitude =  0.9392 alpha
    D( 23) --> V(  1) amplitude = -0.1677 beta
    D( 24) --> V(  1) amplitude =  0.1706 beta

 Excited state   2: excitation energy (eV) =    4.1276
 Total energy for state  2:                  -286.72178659 au
    <S**2>     :  1.7424
    Trans. Mom.:  0.0220 X   0.0143 Y  -0.0690 Z
    Strength   :     0.0005510699
    D( 22) --> V(  1) amplitude =  0.1934 alpha
    D( 23) --> V(  3) amplitude = -0.1603 alpha
    D( 24) --> V(  1) amplitude =  0.3228 alpha
    S(  1) --> V(  1) amplitude =  0.1751 alpha
    S(  1) --> V(  3) amplitude =  0.5228 alpha
    D( 22) --> V(  1) amplitude = -0.1723 beta
    D( 23) --> S(  1) amplitude =  0.2537 beta
    D( 23) --> V(  3) amplitude = -0.1943 beta
    D( 24) --> S(  1) amplitude =  0.4421 beta
    D( 24) --> V(  1) amplitude = -0.3529 beta

 Excited state   3: excitation energy (eV) =    4.2554
 Total energy for state  3:                  -286.71709181 au
    <S**2>     :  1.7246
    Trans. Mom.:  0.0457 X   0.0906 Y  -0.0899 Z
    Strength   :     0.0019175311
    D( 22) --> V(  1) amplitude = -0.1725 alpha
    D( 23) --> V(  1) amplitude = -0.1576 alpha
    D( 24) --> V(  1) amplitude =  0.3161 alpha
    S(  1) --> V(  3) amplitude = -0.5024 alpha
    D( 22) --> V(  1) amplitude =  0.1804 beta
    D( 23) --> S(  1) amplitude =  0.2545 beta
    D( 23) --> V(  1) amplitude = -0.3072 beta
    D( 24) --> S(  1) amplitude =  0.5084 beta
    D( 24) --> V(  3) amplitude = -0.2328 beta

 Excited state   4: excitation energy (eV) =    4.3579
 Total energy for state  4:                  -286.71332536 au
    <S**2>     :  2.1723
    Trans. Mom.: -0.1000 X  -0.0294 Y   0.1995 Z
    Strength   :     0.0054087042
    D( 22) --> V(  1) amplitude =  0.2197 alpha
    D( 22) --> V(  3) amplitude =  0.1734 alpha
    D( 23) --> V(  1) amplitude = -0.5165 alpha
    S(  1) --> V(  1) amplitude = -0.2103 alpha
    D( 22) --> S(  1) amplitude =  0.1609 beta
    D( 22) --> V(  1) amplitude = -0.2686 beta
    D( 22) --> V(  3) amplitude = -0.1599 beta
    D( 23) --> S(  1) amplitude =  0.3914 beta
    D( 23) --> V(  1) amplitude = -0.3782 beta
    D( 24) --> S(  1) amplitude = -0.2729 beta
    D( 24) --> V(  1) amplitude =  0.2155 beta

 ---------------------------------------------------

                    Orbital Energies (a.u.)
 --------------------------------------------------------------

 Alpha MOs
 -- Occupied --
-14.337 -10.235 -10.231 -10.221 -10.216 -10.213 -10.209  -0.965
 -0.832  -0.737  -0.715  -0.588  -0.583  -0.539  -0.520  -0.481
 -0.429  -0.421  -0.391  -0.382  -0.358  -0.304  -0.282  -0.271
 -0.206

 Beta MOs
 -- Occupied --
-14.336 -10.235 -10.231 -10.221 -10.211 -10.208 -10.202  -0.961
 -0.826  -0.735  -0.700  -0.587  -0.570  -0.536  -0.518  -0.472
 -0.425  -0.417  -0.389  -0.379  -0.352  -0.298  -0.273  -0.268

          Ground-State Mulliken Net Atomic Charges

     Atom                 Charge (a.u.)    Spin (a.u.)
  --------------------------------------------------------
      1 C                     0.025362      -0.089729
      2 C                    -0.147982       0.044588
      3 C                    -0.126610       0.092970
      4 C                     0.009665      -0.061643
      5 C                    -0.093416      -0.031735
      6 N                    -0.203287       0.027087
      7 H                     0.129239       0.003501
      8 H                     0.138838       0.000739
      9 H                     0.138347       0.000274
     10 H                     0.124672       0.003382
     11 H                     0.137484      -0.000096
     12 C                    -0.270986       1.037552
     13 H                     0.138675      -0.026891
  --------------------------------------------------------
  Sum of atomic charges =    -0.000000

                    Cartesian Multipole Moments
 -----------------------------------------------------------------
    Charge (ESU x 10^10)
                 0.0000
    Dipole Moment (Debye)
         X      -1.5005      Y      -2.0749      Z      -0.2320
       Tot       2.5711
    Quadrupole Moments (Debye-Ang)
        XX     -37.7694     XY      -4.0693     YY     -45.0459
        XZ      -0.0659     YZ      -1.5147     ZZ     -42.6223

 Total job time:  224.02s(wall), 213.70s(cpu)
        *  Thank you very much for using Q-Chem.  Have a nice day.  *
