 Q-Chem 5.0, Q-Chem, Inc., Pleasanton, CA (2017)
 Q-Chem 5.0.2 for Intel X86 EM64T Linux

User input:
--------------------------------------------------------------
$molecule
0 2
C        1.2127284453    0.0368668508    0.0376955866
C        0.6305475271   -1.0403910836    0.9196822095
C       -0.6978252866   -1.0715380599    0.7284585833
C       -1.0554573233   -0.1049445077   -0.3428226586
C       -0.3916610929    1.3472194381   -0.2055674399
N        0.7799448540    1.4020983627    0.5664737878
H        2.2833498181    0.0047243447   -0.1688803133
H        1.1916039718   -1.5535079892    1.6923899021
H       -1.4280039247   -1.6335127322    1.3009123980
H       -2.0248870876   -0.0931807635   -0.8314089896
H       -0.9994379607    2.2239168004   -0.4092748159
C        0.1723412475    0.2393270252   -1.1062039834
H        0.3267568125    0.2429223137   -2.1814542672
****
C        1.3960047269    0.7443018621   -0.5954189973
C        0.3638135561   -1.3568990652    0.3885838245
C       -0.9310055931   -0.9688285091    0.5640191743
C       -1.4995462479    0.3164410222    0.2488094390
C       -0.8676961993    1.4212114371   -0.2917811648
N        0.4050748128    1.6636694821   -0.6810537633
H        2.3482774842    1.1361082812   -0.9595237342
H        0.6250901799   -2.3715894358    0.6822452920
H       -1.6174295290   -1.7003834628    0.9857294158
H       -2.5593123687    0.4374109800    0.4599827906
H       -1.5133069195    2.2893138673   -0.4428508051
C        1.4395914110   -0.5624040352   -0.1485169705
H        2.4104446867   -1.0483524238   -0.2102245010
$end

$rem
method                b3lyp
basis                 6-31g(d)
unrestricted          true
symmetry              off
sym_ignore            true
incdft                false
incfock               0
scf_convergence       8
thresh                14
jobtype               fsm
scf_guess             core
scf_guess_mix         5
scf_algorithm         diis
max_scf_cycles        100
fsm_nnode             21
fsm_ngrad             6
fsm_mode              2
fsm_opt_mode          2
$end

--------------------------------------------------------------

   22    -286.8377638758      5.28E-09 Convergence criterion met
 Total energy in the final basis set = -286.83776388
   23    -286.9243444364      3.45E-09 Convergence criterion met
 Total energy in the final basis set = -286.92434444
   23    -286.8272443804      5.53E-09 Convergence criterion met
 Total energy in the final basis set = -286.82724438
   22    -286.8312281888      5.31E-09 Convergence criterion met
 Total energy in the final basis set = -286.83122819
   23    -286.9221182045      5.65E-09 Convergence criterion met
 Total energy in the final basis set = -286.92211820
   23    -286.9216703439      9.52E-09 Convergence criterion met
 Total energy in the final basis set = -286.92167034
   22    -286.9204697008      8.63E-09 Convergence criterion met
 Total energy in the final basis set = -286.92046970
   23    -286.9214494866      7.93E-09 Convergence criterion met
 Total energy in the final basis set = -286.75544128
   23    -286.7565862876      7.45E-09 Convergence criterion met
 Total energy in the final basis set = -286.75658629
   23    -286.7554493358      8.58E-09 Convergence criterion met
 Total energy in the final basis set = -286.75544934
   23    -286.7565785177      7.58E-09 Convergence criterion met
 Total energy in the final basis set = -286.75657852
   23    -286.7554509453      8.44E-09 Convergence criterion met
 Total energy in the final basis set = -286.75545095
   23    -286.7565772352      7.75E-09 Convergence criterion met
 Total energy in the final basis set = -286.75657724
   23    -286.7554610168      8.38E-09 Convergence criterion met
 Total energy in the final basis set = -286.75546102
   23    -286.7565674954      7.80E-09 Convergence criterion met
 Total energy in the final basis set = -286.75656750

                    Orbital Energies (a.u.)
 --------------------------------------------------------------

 Alpha MOs
 -- Occupied --
-14.320 -10.232 -10.230 -10.225 -10.213 -10.213 -10.200  -0.941
 -0.815  -0.732  -0.693  -0.595  -0.568  -0.534  -0.487  -0.463
 -0.421  -0.409  -0.382  -0.366  -0.332  -0.298  -0.264  -0.249
 -0.164

 Beta MOs
 -- Occupied --
-14.319 -10.233 -10.231 -10.225 -10.213 -10.199 -10.196  -0.937
 -0.808  -0.730  -0.680  -0.591  -0.555  -0.529  -0.485  -0.456
 -0.418  -0.406  -0.381  -0.362  -0.326  -0.287  -0.255  -0.242

          Ground-State Mulliken Net Atomic Charges

     Atom                 Charge (a.u.)    Spin (a.u.)
  --------------------------------------------------------
      1 C                    -0.071521      -0.044690
      2 C                    -0.110376      -0.078412
      3 C                    -0.082351       0.208644
      4 C                    -0.218515      -0.080401
      5 C                     0.103822      -0.021968
      6 N                    -0.346210       0.060793
      7 H                     0.156781       0.004246
      8 H                     0.147094       0.006811
      9 H                     0.150825      -0.011049
     10 H                     0.136438       0.003686
     11 H                     0.149777       0.001698
     12 C                    -0.168276       1.000444
     13 H                     0.152512      -0.049801
  --------------------------------------------------------
  Sum of atomic charges =    -0.000000

                    Cartesian Multipole Moments
 -----------------------------------------------------------------
    Charge (ESU x 10^10)
                -0.0000
    Dipole Moment (Debye)
         X      -1.2116      Y      -1.9655      Z      -0.6124
       Tot       2.3888
    Quadrupole Moments (Debye-Ang)
        XX     -36.4678     XY      -3.6560     YY     -42.9724
        XZ      -1.5219     YZ      -2.8333     ZZ     -42.1573

             Standard Nuclear Orientation (Angstroms)
    I     Atom           X                Y                Z
 ----------------------------------------------------------------
    1      C       1.2122158044     0.2649230617     0.0565675483
    2      C       0.6273534282    -1.0108918962     0.8829546424
    3      C      -0.7078680637    -0.9428386213     0.7335138050
    4      C      -1.0651254134     0.0836865077    -0.3333201865
    5      C      -0.6071253169     1.4886695346    -0.0532485272
    6      N       0.6106758825     1.6199895617     0.3381730558
    7      H       2.2730599751     0.4828779523    -0.1324635043
    8      H       1.0959365337    -1.8930228118     1.3391524051
    9      H      -1.4414861525    -1.6340444837     1.1585232511
   10      H      -2.1576898381     0.0933939779    -0.5184747108
   11      H      -1.2434754182     2.3253110707    -0.3207439869
   12      C       0.4209734629    -0.1939470392    -1.1534230703
   13      H       0.9467093510    -0.7174538942    -1.9562567150
 ----------------------------------------------------------------

 Total job time:  1916.31s(wall), 5285.08s(cpu)
        *  Thank you very much for using Q-Chem.  Have a nice day.  *
