 Q-Chem 5.0, Q-Chem, Inc., Pleasanton, CA (2017)
 Q-Chem 5.0.2 for Intel X86 EM64T Linux

User input:
--------------------------------------------------------------
$molecule
0 2
C        1.2179149434    0.1247694157   -0.0301907497
C        0.6084177021   -0.8814384173    0.9592241678
C       -0.7058703275   -0.9479663074    0.6877230016
C       -0.9620341025    0.0121806728   -0.4937019328
C       -0.5832635571    1.4158531267    0.0461801660
N        0.6603167127    1.5098625044    0.3312483434
H        2.3015806614    0.1451485149   -0.1192448897
H        1.1548541111   -1.3789023180    1.7516600165
H       -1.4749383105   -1.5064084993    1.2081794482
H       -1.9104884951   -0.0808782790   -1.0210528782
H       -1.2807257797    2.2379662972    0.1934312263
C        0.3552925298   -0.2065778260   -1.2257351744
H        0.5830981467   -0.4769559645   -2.2467667382
$end

$rem
method                b3lyp
basis                 6-31+g(d,p)
unrestricted          true
symmetry              off
sym_ignore            true
incdft                false
incfock               0
scf_convergence       8
thresh                14
jobtype               rpath
scf_guess             core
scf_guess_mix         5
scf_algorithm         diis
max_scf_cycles        100
rpath_direction       1
rpath_tol_displacement 1000
rpath_max_cycles      50
geom_opt_max_cycles   300
geom_opt_hessian      read
$end

--------------------------------------------------------------

   21    -286.8702742120      8.51E-09 Convergence criterion met
 Total energy in the final basis set = -286.87027421
   21    -286.8703960456      7.95E-09 Convergence criterion met
 Total energy in the final basis set = -286.87039605
   22    -286.8679663082      7.99E-09 Convergence criterion met
 Total energy in the final basis set = -286.86796631
   21    -286.8704008324      7.68E-09 Convergence criterion met
 Total energy in the final basis set = -286.87040083
   22    -286.8677586490      5.10E-09 Convergence criterion met
 Total energy in the final basis set = -286.86775865
   21    -286.8704097607      7.49E-09 Convergence criterion met
 Total energy in the final basis set = -286.87040976
   21    -286.8704084234      7.97E-09 Convergence criterion met
 Total energy in the final basis set = -286.87040842
   21    -286.8704125443      7.68E-09 Convergence criterion met
 Total energy in the final basis set = -286.86081181
   21    -286.8734756634      5.44E-09 Convergence criterion met
 Total energy in the final basis set = -286.87347566
   21    -286.8734748548      5.74E-09 Convergence criterion met
 Total energy in the final basis set = -286.87347485
   21    -286.8734759790      5.54E-09 Convergence criterion met
 Total energy in the final basis set = -286.87347598
   21    -286.8664155233      4.81E-09 Convergence criterion met
 Total energy in the final basis set = -286.86641552
   21    -286.8734780749      5.55E-09 Convergence criterion met
 Total energy in the final basis set = -286.87347807
   21    -286.8734773292      5.75E-09 Convergence criterion met
 Total energy in the final basis set = -286.87347733
   21    -286.8734781705      5.59E-09 Convergence criterion met
 Total energy in the final basis set = -286.87347817

                    Orbital Energies (a.u.)
 --------------------------------------------------------------

 Alpha MOs
 -- Occupied --
-14.337 -10.235 -10.231 -10.221 -10.216 -10.213 -10.209  -0.965
 -0.832  -0.737  -0.715  -0.588  -0.583  -0.539  -0.520  -0.481
 -0.429  -0.421  -0.391  -0.382  -0.358  -0.305  -0.283  -0.271
 -0.206

 Beta MOs
 -- Occupied --
-14.336 -10.235 -10.231 -10.221 -10.211 -10.208 -10.202  -0.961
 -0.826  -0.735  -0.700  -0.587  -0.570  -0.536  -0.518  -0.472
 -0.425  -0.417  -0.389  -0.379  -0.352  -0.298  -0.273  -0.268

          Ground-State Mulliken Net Atomic Charges

     Atom                 Charge (a.u.)    Spin (a.u.)
  --------------------------------------------------------
      1 C                     0.025465      -0.089748
      2 C                    -0.147926       0.044704
      3 C                    -0.126470       0.092895
      4 C                     0.009471      -0.061668
      5 C                    -0.093182      -0.031692
      6 N                    -0.203392       0.027047
      7 H                     0.129239       0.003503
      8 H                     0.138763       0.000719
      9 H                     0.138263       0.000253
     10 H                     0.124664       0.003381
     11 H                     0.137433      -0.000098
     12 C                    -0.270990       1.037621
     13 H                     0.138662      -0.026916
  --------------------------------------------------------
  Sum of atomic charges =    -0.000000

                    Cartesian Multipole Moments
 -----------------------------------------------------------------
    Charge (ESU x 10^10)
                -0.0000
    Dipole Moment (Debye)
         X      -1.4949      Y      -2.0780      Z      -0.2455
       Tot       2.5716
    Quadrupole Moments (Debye-Ang)
        XX     -37.7414     XY      -4.0402     YY     -45.0331
        XZ      -0.0886     YZ      -1.5380     ZZ     -42.6412

             Standard Nuclear Orientation (Angstroms)
    I     Atom           X                Y                Z
 ----------------------------------------------------------------
    1      C       1.2179149434     0.1247694157    -0.0301907497
    2      C       0.6084177021    -0.8814384173     0.9592241678
    3      C      -0.7058703275    -0.9479663074     0.6877230016
    4      C      -0.9620341025     0.0121806728    -0.4937019328
    5      C      -0.5832635571     1.4158531267     0.0461801660
    6      N       0.6603167127     1.5098625044     0.3312483434
    7      H       2.3015806614     0.1451485149    -0.1192448897
    8      H       1.1548541111    -1.3789023180     1.7516600165
    9      H      -1.4749383105    -1.5064084993     1.2081794482
   10      H      -1.9104884951    -0.0808782790    -1.0210528782
   11      H      -1.2807257797     2.2379662972     0.1934312263
   12      C       0.3552925298    -0.2065778260    -1.2257351744
   13      H       0.5830981467    -0.4769559645    -2.2467667382
 ----------------------------------------------------------------

 Total job time:  11855.95s(wall), 39729.67s(cpu)
        *  Thank you very much for using Q-Chem.  Have a nice day.  *
