 Q-Chem 5.0, Q-Chem, Inc., Pleasanton, CA (2017)
 Q-Chem 5.0.2 for Intel X86 EM64T Linux

User input:
--------------------------------------------------------------
$molecule
0 2
C        1.2126239819    0.0361848842    0.0372083026
C        0.6307112700   -1.0403686793    0.9196791699
C       -0.6974578799   -1.0713100486    0.7283916818
C       -1.0553629537   -0.1046590976   -0.3430008212
C       -0.3915535410    1.3476091104   -0.2059449721
N        0.7796220783    1.4033690950    0.5670903529
H        2.2831182215    0.0044716673   -0.1695556388
H        1.1910480792   -1.5545772926    1.6922047449
H       -1.4275877708   -1.6330782555    1.3010729747
H       -2.0251434222   -0.0928111491   -0.8308302739
H       -1.0008124281    2.2234186946   -0.4092886851
C        0.1727068698    0.2393605796   -1.1059357165
H        0.3280874955    0.2423904911   -2.1810911198
$end

$rem
method                b3lyp
basis                 6-31g(d)
unrestricted          true
symmetry              off
sym_ignore            true
incdft                false
incfock               0
scf_convergence       8
thresh                14
jobtype               opt
scf_guess             core
scf_guess_mix         5
scf_algorithm         diis
max_scf_cycles        100
geom_opt_max_cycles   300
$end

--------------------------------------------------------------

   22    -286.8377615164      5.22E-09 Convergence criterion met
 Total energy in the final basis set = -286.83776152
   17    -286.8377633041      5.13E-09 Convergence criterion met
 Total energy in the final basis set = -286.83776330

             Standard Nuclear Orientation (Angstroms)
    I     Atom           X                Y                Z
 ----------------------------------------------------------------
    1      C       1.2127284453     0.0368668508     0.0376955866
    2      C       0.6305475271    -1.0403910836     0.9196822095
    3      C      -0.6978252866    -1.0715380599     0.7284585833
    4      C      -1.0554573233    -0.1049445077    -0.3428226586
    5      C      -0.3916610929     1.3472194381    -0.2055674399
    6      N       0.7799448540     1.4020983627     0.5664737878
    7      H       2.2833498181     0.0047243447    -0.1688803133
    8      H       1.1916039718    -1.5535079892     1.6923899021
    9      H      -1.4280039247    -1.6335127322     1.3009123980
   10      H      -2.0248870876    -0.0931807635    -0.8314089896
   11      H      -0.9994379607     2.2239168004    -0.4092748159
   12      C       0.1723412475     0.2393270252    -1.1062039834
   13      H       0.3267568125     0.2429223137    -2.1814542672
 ----------------------------------------------------------------

   17    -286.8377638758      5.06E-09 Convergence criterion met
 Total energy in the final basis set = -286.83776388
 Final energy is   -286.837763875836
 **  OPTIMIZATION CONVERGED  **

                    Orbital Energies (a.u.)
 --------------------------------------------------------------

 Alpha MOs
 -- Occupied --
-14.336 -10.227 -10.223 -10.216 -10.213 -10.190 -10.184  -0.975
 -0.810  -0.764  -0.680  -0.594  -0.566  -0.539  -0.508  -0.478
 -0.419  -0.401  -0.387  -0.367  -0.356  -0.328  -0.262  -0.240
 -0.203

 Beta MOs
 -- Occupied --
-14.319 -10.228 -10.223 -10.213 -10.211 -10.190 -10.183  -0.960
 -0.794  -0.758  -0.673  -0.589  -0.562  -0.536  -0.501  -0.472
 -0.411  -0.390  -0.382  -0.362  -0.347  -0.311  -0.246  -0.235

          Ground-State Mulliken Net Atomic Charges

     Atom                 Charge (a.u.)    Spin (a.u.)
  --------------------------------------------------------
      1 C                    -0.096325      -0.045073
      2 C                    -0.092776       0.032902
      3 C                    -0.078806      -0.001370
      4 C                    -0.175035       0.085864
      5 C                     0.015282      -0.063868
      6 N                    -0.307463       0.829804
      7 H                     0.143044       0.011372
      8 H                     0.139128      -0.000278
      9 H                     0.137446       0.004533
     10 H                     0.148023       0.001320
     11 H                     0.151521       0.001036
     12 C                    -0.139495       0.135480
     13 H                     0.155456       0.008278
  --------------------------------------------------------
  Sum of atomic charges =    -0.000000

                    Cartesian Multipole Moments
 -----------------------------------------------------------------
    Charge (ESU x 10^10)
                -0.0000
    Dipole Moment (Debye)
         X      -1.1120      Y      -1.2074      Z      -1.4480
       Tot       2.1889
    Quadrupole Moments (Debye-Ang)
        XX     -37.6851     XY      -2.9051     YY     -43.3683
        XZ      -0.4046     YZ      -3.8820     ZZ     -39.4813

 Total job time:  67.60s(wall), 172.81s(cpu)
        *  Thank you very much for using Q-Chem.  Have a nice day.  *
