 Q-Chem 5.0, Q-Chem, Inc., Pleasanton, CA (2017)
 Q-Chem 5.0.2 for Intel X86 EM64T Linux

User input:
--------------------------------------------------------------
$molecule
0 2
C        1.3961144626    0.7443287351   -0.5949057701
C        0.3638830522   -1.3569233185    0.3887503850
C       -0.9309063657   -0.9687286098    0.5641208119
C       -1.4995148267    0.3164884528    0.2491114346
C       -0.8675639527    1.4213156265   -0.2914905986
N        0.4049445867    1.6637250928   -0.6813184785
H        2.3481203618    1.1360639442   -0.9596923838
H        0.6249346450   -2.3717724651    0.6820819120
H       -1.6175026484   -1.7004657683    0.9852889931
H       -2.5592582287    0.4374709098    0.4602604562
H       -1.5133484726    2.2891354581   -0.4434661576
C        1.4396285374   -0.5623589460   -0.1482839230
H        2.4104688491   -1.0482791116   -0.2104566812
$end

$rem
method                b3lyp
basis                 6-31g(d)
unrestricted          true
symmetry              off
sym_ignore            true
incdft                false
incfock               0
scf_convergence       8
thresh                14
jobtype               opt
scf_guess             core
scf_guess_mix         5
scf_algorithm         diis
max_scf_cycles        100
geom_opt_max_cycles   300
$end

--------------------------------------------------------------

   23    -286.9243440654      4.07E-09 Convergence criterion met
 Total energy in the final basis set = -286.92434407

             Standard Nuclear Orientation (Angstroms)
    I     Atom           X                Y                Z
 ----------------------------------------------------------------
    1      C       1.3960047269     0.7443018621    -0.5954189973
    2      C       0.3638135561    -1.3568990652     0.3885838245
    3      C      -0.9310055931    -0.9688285091     0.5640191743
    4      C      -1.4995462479     0.3164410222     0.2488094390
    5      C      -0.8676961993     1.4212114371    -0.2917811648
    6      N       0.4050748128     1.6636694821    -0.6810537633
    7      H       2.3482774842     1.1361082812    -0.9595237342
    8      H       0.6250901799    -2.3715894358     0.6822452920
    9      H      -1.6174295290    -1.7003834628     0.9857294158
   10      H      -2.5593123687     0.4374109800     0.4599827906
   11      H      -1.5133069195     2.2893138673    -0.4428508051
   12      C       1.4395914110    -0.5624040352    -0.1485169705
   13      H       2.4104446867    -1.0483524238    -0.2102245010
 ----------------------------------------------------------------

   18    -286.9243444110      2.95E-09 Convergence criterion met
 Total energy in the final basis set = -286.92434441
 Final energy is   -286.924344410981
 **  OPTIMIZATION CONVERGED  **

                    Orbital Energies (a.u.)
 --------------------------------------------------------------

 Alpha MOs
 -- Occupied --
-14.322 -10.232 -10.232 -10.212 -10.211 -10.201 -10.200  -0.922
 -0.818  -0.784  -0.693  -0.667  -0.551  -0.537  -0.518  -0.449
 -0.439  -0.414  -0.394  -0.386  -0.349  -0.322  -0.299  -0.251
 -0.162

 Beta MOs
 -- Occupied --
-14.314 -10.233 -10.233 -10.210 -10.210 -10.196 -10.196  -0.911
 -0.809  -0.777  -0.681  -0.665  -0.546  -0.534  -0.514  -0.447
 -0.438  -0.411  -0.383  -0.373  -0.348  -0.295  -0.276  -0.242

          Ground-State Mulliken Net Atomic Charges

     Atom                 Charge (a.u.)    Spin (a.u.)
  --------------------------------------------------------
      1 C                     0.035390      -0.110488
      2 C                    -0.111783       0.098304
      3 C                    -0.110884       0.089267
      4 C                    -0.131851       0.350374
      5 C                     0.036169      -0.114655
      6 N                    -0.423556       0.386927
      7 H                     0.142600       0.003297
      8 H                     0.141950      -0.006854
      9 H                     0.141980      -0.006423
     10 H                     0.134274      -0.018489
     11 H                     0.142587       0.003503
     12 C                    -0.131325       0.343405
     13 H                     0.134448      -0.018168
  --------------------------------------------------------
  Sum of atomic charges =     0.000000

                    Cartesian Multipole Moments
 -----------------------------------------------------------------
    Charge (ESU x 10^10)
                -0.0000
    Dipole Moment (Debye)
         X      -0.4940      Y      -2.0261      Z       0.8300
       Tot       2.2446
    Quadrupole Moments (Debye-Ang)
        XX     -35.1145     XY      -2.2525     YY     -41.8109
        XZ      -1.1818     YZ      -0.0068     ZZ     -43.0758

 Total job time:  46.64s(wall), 120.22s(cpu)
        *  Thank you very much for using Q-Chem.  Have a nice day.  *
