 Q-Chem 5.0, Q-Chem, Inc., Pleasanton, CA (2017)
 Q-Chem 5.0.2 for Intel X86 EM64T Linux

User input:
--------------------------------------------------------------
$molecule
0 2
C        1.2162822352    0.1244111442   -0.0309853898
C        0.6069047239   -0.8817577524    0.9582389111
C       -0.7047276325   -0.9487422303    0.6864653176
C       -0.9611156418    0.0110511223   -0.4943925700
C       -0.5809164843    1.4146141623    0.0469193395
N        0.6603540796    1.5116991538    0.3326865896
H        2.3009311857    0.1448153533   -0.1194463519
H        1.1535525221   -1.3773462299    1.7525081208
H       -1.4750529475   -1.5037083156    1.2098659796
H       -1.9106343682   -0.0823450893   -1.0209894079
H       -1.2804107067    2.2361119205    0.1949323962
C        0.3551563903   -0.2054161296   -1.2271459693
H        0.5838308790   -0.4767341890   -2.2477029587
$end

$rem
method                b3lyp
basis                 6-31+g(d,p)
unrestricted          true
symmetry              off
sym_ignore            true
incdft                false
incfock               0
scf_convergence       8
thresh                14
jobtype               freq
scf_guess             read
scf_algorithm         diis
max_scf_cycles        100
$end

--------------------------------------------------------------

             Standard Nuclear Orientation (Angstroms)
    I     Atom           X                Y                Z
 ----------------------------------------------------------------
    1      C       1.2162822352     0.1244111442    -0.0309853898
    2      C       0.6069047239    -0.8817577524     0.9582389111
    3      C      -0.7047276325    -0.9487422303     0.6864653176
    4      C      -0.9611156418     0.0110511223    -0.4943925700
    5      C      -0.5809164843     1.4146141623     0.0469193395
    6      N       0.6603540796     1.5116991538     0.3326865896
    7      H       2.3009311857     0.1448153533    -0.1194463519
    8      H       1.1535525221    -1.3773462299     1.7525081208
    9      H      -1.4750529475    -1.5037083156     1.2098659796
   10      H      -1.9106343682    -0.0823450893    -1.0209894079
   11      H      -1.2804107067     2.2361119205     0.1949323962
   12      C       0.3551563903    -0.2054161296    -1.2271459693
   13      H       0.5838308790    -0.4767341890    -2.2477029587
 ----------------------------------------------------------------

    2    -286.8702510026      1.39E-09 Convergence criterion met
 Total energy in the final basis set = -286.87025100

                    Orbital Energies (a.u.)
 --------------------------------------------------------------

 Alpha MOs
 -- Occupied --
-14.337 -10.235 -10.230 -10.220 -10.211 -10.207 -10.204  -0.963
 -0.829  -0.734  -0.716  -0.585  -0.581  -0.540  -0.521  -0.476
 -0.435  -0.420  -0.390  -0.380  -0.359  -0.304  -0.277  -0.269
 -0.194

 Beta MOs
 -- Occupied --
-14.335 -10.235 -10.231 -10.221 -10.206 -10.203 -10.197  -0.958
 -0.823  -0.733  -0.700  -0.583  -0.566  -0.537  -0.519  -0.465
 -0.431  -0.417  -0.389  -0.378  -0.354  -0.298  -0.271  -0.262

          Ground-State Mulliken Net Atomic Charges

     Atom                 Charge (a.u.)    Spin (a.u.)
  --------------------------------------------------------
      1 C                     0.037526      -0.104089
      2 C                    -0.139319       0.008910
      3 C                    -0.122760       0.078103
      4 C                     0.026886      -0.087058
      5 C                    -0.115199      -0.021607
      6 N                    -0.198967       0.069184
      7 H                     0.126673       0.001897
      8 H                     0.137279      -0.000572
      9 H                     0.136764      -0.002008
     10 H                     0.122874       0.001802
     11 H                     0.138005       0.000509
     12 C                    -0.291045       1.104343
     13 H                     0.141282      -0.049412
  --------------------------------------------------------
  Sum of atomic charges =    -0.000000

                    Cartesian Multipole Moments
 -----------------------------------------------------------------
    Charge (ESU x 10^10)
                 0.0000
    Dipole Moment (Debye)
         X      -1.4447      Y      -1.5893      Z      -0.6178
       Tot       2.2349
    Quadrupole Moments (Debye-Ang)
        XX     -37.8250     XY      -3.8038     YY     -45.9999
        XZ      -0.3414     YZ      -2.2344     ZZ     -40.6800

 Frequency:      -462.72                 432.97                 452.95
 Force Cnst:      0.1388                 0.2902                 0.4241
 Red. Mass:       1.1003                 2.6271                 3.5087
 IR Intens:       41.003                  4.317                  3.712
 Frequency:       492.64                 550.66                 679.12
 Force Cnst:      0.5534                 0.7143                 0.6640
 Red. Mass:       3.8699                 3.9984                 2.4437
 IR Intens:        3.729                  6.612                 17.592
 Frequency:       720.04                 769.21                 820.39
 Force Cnst:      1.9117                 1.1202                 1.2029
 Red. Mass:       6.2583                 3.2134                 3.0335
 IR Intens:        2.600                 44.591                 13.402
 Frequency:       851.31                 864.39                 884.66
 Force Cnst:      1.1493                 1.1759                 1.5315
 Red. Mass:       2.6917                 2.6712                 3.3214
 IR Intens:        5.597                  3.509                  3.345
 Frequency:       909.45                 937.70                 947.36
 Force Cnst:      1.0663                 0.7863                 0.9247
 Red. Mass:       2.1881                 1.5177                 1.7488
 IR Intens:        3.221                 11.438                  5.779
 Frequency:       962.76                 986.52                1113.35
 Force Cnst:      0.7828                 1.3816                 0.9757
 Red. Mass:       1.4334                 2.4095                 1.3360
 IR Intens:        2.816                  1.506                  0.390
 Frequency:      1199.25                1213.63                1235.51
 Force Cnst:      1.8520                 1.2370                 1.1665
 Red. Mass:       2.1856                 1.4254                 1.2970
 IR Intens:        9.355                  4.439                  0.982
 Frequency:      1256.04                1272.48                1286.97
 Force Cnst:      1.1275                 1.4349                 1.3964
 Red. Mass:       1.2130                 1.5040                 1.4309
 IR Intens:        0.474                  4.019                  2.543
 Frequency:      1323.54                1611.09                1659.18
 Force Cnst:      1.6648                 8.6311                13.0200
 Red. Mass:       1.6130                 5.6439                 8.0274
 IR Intens:       22.402                  9.712                 13.953
 Frequency:      3149.56                3164.72                3171.97
 Force Cnst:      6.3693                 6.4350                 6.4897
 Red. Mass:       1.0898                 1.0905                 1.0948
 IR Intens:       18.325                 25.917                 18.833
 Frequency:      3217.05                3241.42                3274.30
 Force Cnst:      6.6243                 6.8561                 6.9238
 Red. Mass:       1.0864                 1.1075                 1.0961
 IR Intens:        3.979                  8.077                  2.578

 STANDARD THERMODYNAMIC QUANTITIES AT   298.15 K  AND     1.00 ATM

   This Molecule has  1 Imaginary Frequencies
   Zero point vibrational energy:       63.834 kcal/mol

   Atom    1 Element C  Has Mass   12.00000
   Atom    2 Element C  Has Mass   12.00000
   Atom    3 Element C  Has Mass   12.00000
   Atom    4 Element C  Has Mass   12.00000
   Atom    5 Element C  Has Mass   12.00000
   Atom    6 Element N  Has Mass   14.00307
   Atom    7 Element H  Has Mass    1.00783
   Atom    8 Element H  Has Mass    1.00783
   Atom    9 Element H  Has Mass    1.00783
   Atom   10 Element H  Has Mass    1.00783
   Atom   11 Element H  Has Mass    1.00783
   Atom   12 Element C  Has Mass   12.00000
   Atom   13 Element H  Has Mass    1.00783
   Molecular Mass:    92.050050 amu
   Principal axes and moments of inertia in amu*Bohr^2:
                             1           2           3
    Eigenvalues --      398.22498   474.99882   546.39340
          X               0.09464     0.96554    -0.24243
          Y               0.96127    -0.02532     0.27444
          Z              -0.25885     0.25902     0.93054
   Rotational Symmetry Number is   1
   The Molecule is an Asymmetric Top
   Translational Enthalpy:        0.889 kcal/mol
   Rotational Enthalpy:           0.889 kcal/mol
   Vibrational Enthalpy:         65.013 kcal/mol
   gas constant (RT):             0.592 kcal/mol
   Translational Entropy:        39.471  cal/mol.K
   Rotational Entropy:           26.138  cal/mol.K
   Vibrational Entropy:           5.257  cal/mol.K

   Total Enthalpy:               67.382 kcal/mol
   Total Entropy:                70.867  cal/mol.K

 Total job time:  557.92s(wall), 548.13s(cpu)
        *  Thank you very much for using Q-Chem.  Have a nice day.  *
