 Q-Chem 5.0, Q-Chem, Inc., Pleasanton, CA (2017)
 Q-Chem 5.0.2 for Intel X86 EM64T Linux

User input:
--------------------------------------------------------------
$molecule
0 2
C        1.2122158044    0.2649230617    0.0565675483
C        0.6273534282   -1.0108918962    0.8829546424
C       -0.7078680637   -0.9428386213    0.7335138050
C       -1.0651254134    0.0836865077   -0.3333201865
C       -0.6071253169    1.4886695346   -0.0532485272
N        0.6106758825    1.6199895617    0.3381730558
H        2.2730599751    0.4828779523   -0.1324635043
H        1.0959365337   -1.8930228118    1.3391524051
H       -1.4414861525   -1.6340444837    1.1585232511
H       -2.1576898381    0.0933939779   -0.5184747108
H       -1.2434754182    2.3253110707   -0.3207439869
C        0.4209734629   -0.1939470392   -1.1534230703
H        0.9467093510   -0.7174538942   -1.9562567150
$end

$rem
method                b3lyp
basis                 6-31g(d)
unrestricted          true
symmetry              off
sym_ignore            true
incdft                false
incfock               0
scf_convergence       8
thresh                14
jobtype               ts
scf_guess             read
scf_algorithm         diis
max_scf_cycles        100
geom_opt_max_cycles   500
geom_opt_dmax         100
geom_opt_tol_gradient 10
geom_opt_hessian      read
$end

--------------------------------------------------------------

    2    -286.7846425328      2.87E-10 Convergence criterion met
 Total energy in the final basis set = -286.78464253
   14    -286.7900432904      7.25E-09 Convergence criterion met
 Total energy in the final basis set = -286.79004329
   14    -286.7955255325      7.27E-09 Convergence criterion met
 Total energy in the final basis set = -286.79552553
   14    -286.8006997501      6.73E-09 Convergence criterion met
 Total energy in the final basis set = -286.80069975
   14    -286.8056273215      6.30E-09 Convergence criterion met
 Total energy in the final basis set = -286.80562732
   14    -286.8103453622      5.92E-09 Convergence criterion met
 Total energy in the final basis set = -286.81034536
   14    -286.8148688395      5.52E-09 Convergence criterion met
 Total energy in the final basis set = -286.81486884
   14    -286.8192040764      5.11E-09 Convergence criterion met
   10    -286.8477077684      8.86E-09 Convergence criterion met
 Total energy in the final basis set = -286.84770777
    9    -286.8477078994      9.03E-09 Convergence criterion met
 Total energy in the final basis set = -286.84770790
    9    -286.8477074089      9.25E-09 Convergence criterion met
 Total energy in the final basis set = -286.84770741
    9    -286.8477073509      9.57E-09 Convergence criterion met
 Total energy in the final basis set = -286.84770735
    9    -286.8477073647      5.47E-09 Convergence criterion met
 Total energy in the final basis set = -286.84770736
    8    -286.8477073678      7.70E-09 Convergence criterion met
 Total energy in the final basis set = -286.84770737

             Standard Nuclear Orientation (Angstroms)
    I     Atom           X                Y                Z
 ----------------------------------------------------------------
    1      C       1.2162822352     0.1244111442    -0.0309853898
    2      C       0.6069047239    -0.8817577524     0.9582389111
    3      C      -0.7047276325    -0.9487422303     0.6864653176
    4      C      -0.9611156418     0.0110511223    -0.4943925700
    5      C      -0.5809164843     1.4146141623     0.0469193395
    6      N       0.6603540796     1.5116991538     0.3326865896
    7      H       2.3009311857     0.1448153533    -0.1194463519
    8      H       1.1535525221    -1.3773462299     1.7525081208
    9      H      -1.4750529475    -1.5037083156     1.2098659796
   10      H      -1.9106343682    -0.0823450893    -1.0209894079
   11      H      -1.2804107067     2.2361119205     0.1949323962
   12      C       0.3551563903    -0.2054161296    -1.2271459693
   13      H       0.5838308790    -0.4767341890    -2.2477029587
 ----------------------------------------------------------------

    7    -286.8477073710      8.76E-09 Convergence criterion met
 Total energy in the final basis set = -286.84770737
 Final energy is   -286.847707370952
 **  OPTIMIZATION CONVERGED  **

                    Orbital Energies (a.u.)
 --------------------------------------------------------------

 Alpha MOs
 -- Occupied --
-14.321 -10.224 -10.219 -10.210 -10.199 -10.195 -10.192  -0.950
 -0.816  -0.723  -0.705  -0.575  -0.571  -0.531  -0.512  -0.465
 -0.425  -0.408  -0.380  -0.370  -0.348  -0.292  -0.265  -0.255
 -0.182

 Beta MOs
 -- Occupied --
-14.320 -10.224 -10.220 -10.210 -10.194 -10.191 -10.184  -0.945
 -0.810  -0.722  -0.689  -0.573  -0.556  -0.528  -0.510  -0.454
 -0.421  -0.406  -0.379  -0.368  -0.343  -0.286  -0.258  -0.249

          Ground-State Mulliken Net Atomic Charges

     Atom                 Charge (a.u.)    Spin (a.u.)
  --------------------------------------------------------
      1 C                    -0.094996      -0.061170
      2 C                    -0.083746       0.014482
      3 C                    -0.090224       0.069915
      4 C                    -0.245347      -0.060792
      5 C                     0.091706      -0.005798
      6 N                    -0.325306       0.069054
      7 H                     0.137479       0.001573
      8 H                     0.144187      -0.000531
      9 H                     0.143005      -0.001895
     10 H                     0.131747       0.001418
     11 H                     0.150026       0.000304
     12 C                    -0.109781       1.025651
     13 H                     0.151252      -0.052212
  --------------------------------------------------------
  Sum of atomic charges =    -0.000000

                    Cartesian Multipole Moments
 -----------------------------------------------------------------
    Charge (ESU x 10^10)
                -0.0000
    Dipole Moment (Debye)
         X      -1.2978      Y      -1.5100      Z      -0.5912
       Tot       2.0770
    Quadrupole Moments (Debye-Ang)
        XX     -37.1578     XY      -3.4452     YY     -43.9780
        XZ      -0.4347     YZ      -2.0191     ZZ     -39.2217

 Total job time:  472.26s(wall), 1354.06s(cpu)
        *  Thank you very much for using Q-Chem.  Have a nice day.  *
