 Q-Chem 5.0, Q-Chem, Inc., Pleasanton, CA (2017)
 Q-Chem 5.0.2 for Intel X86 EM64T Linux

User input:
--------------------------------------------------------------
$molecule
0 2
C        1.2162822352    0.1244111442   -0.0309853898
C        0.6069047239   -0.8817577524    0.9582389111
C       -0.7047276325   -0.9487422303    0.6864653176
C       -0.9611156418    0.0110511223   -0.4943925700
C       -0.5809164843    1.4146141623    0.0469193395
N        0.6603540796    1.5116991538    0.3326865896
H        2.3009311857    0.1448153533   -0.1194463519
H        1.1535525221   -1.3773462299    1.7525081208
H       -1.4750529475   -1.5037083156    1.2098659796
H       -1.9106343682   -0.0823450893   -1.0209894079
H       -1.2804107067    2.2361119205    0.1949323962
C        0.3551563903   -0.2054161296   -1.2271459693
H        0.5838308790   -0.4767341890   -2.2477029587
$end

$rem
method                b3lyp
basis                 6-31+g(d,p)
unrestricted          true
symmetry              off
sym_ignore            true
incdft                false
incfock               0
scf_convergence       8
thresh                14
jobtype               sp
scf_guess             core
scf_guess_mix         5
scf_algorithm         diis
max_scf_cycles        100
$end

--------------------------------------------------------------

             Standard Nuclear Orientation (Angstroms)
    I     Atom           X                Y                Z
 ----------------------------------------------------------------
    1      C       1.2162822352     0.1244111442    -0.0309853898
    2      C       0.6069047239    -0.8817577524     0.9582389111
    3      C      -0.7047276325    -0.9487422303     0.6864653176
    4      C      -0.9611156418     0.0110511223    -0.4943925700
    5      C      -0.5809164843     1.4146141623     0.0469193395
    6      N       0.6603540796     1.5116991538     0.3326865896
    7      H       2.3009311857     0.1448153533    -0.1194463519
    8      H       1.1535525221    -1.3773462299     1.7525081208
    9      H      -1.4750529475    -1.5037083156     1.2098659796
   10      H      -1.9106343682    -0.0823450893    -1.0209894079
   11      H      -1.2804107067     2.2361119205     0.1949323962
   12      C       0.3551563903    -0.2054161296    -1.2271459693
   13      H       0.5838308790    -0.4767341890    -2.2477029587
 ----------------------------------------------------------------

   21    -286.8702510026      8.36E-09 Convergence criterion met
 Total energy in the final basis set = -286.87025100

                    Orbital Energies (a.u.)
 --------------------------------------------------------------

 Alpha MOs
 -- Occupied --
-14.337 -10.235 -10.230 -10.220 -10.211 -10.207 -10.204  -0.963
 -0.829  -0.734  -0.716  -0.585  -0.581  -0.540  -0.521  -0.476
 -0.435  -0.420  -0.390  -0.380  -0.359  -0.304  -0.277  -0.269
 -0.194

 Beta MOs
 -- Occupied --
-14.335 -10.235 -10.231 -10.221 -10.206 -10.203 -10.197  -0.958
 -0.823  -0.733  -0.700  -0.583  -0.566  -0.537  -0.519  -0.465
 -0.431  -0.417  -0.389  -0.378  -0.354  -0.298  -0.271  -0.262

          Ground-State Mulliken Net Atomic Charges

     Atom                 Charge (a.u.)    Spin (a.u.)
  --------------------------------------------------------
      1 C                     0.037526      -0.104090
      2 C                    -0.139319       0.008912
      3 C                    -0.122760       0.078099
      4 C                     0.026886      -0.087058
      5 C                    -0.115199      -0.021605
      6 N                    -0.198967       0.069182
      7 H                     0.126673       0.001897
      8 H                     0.137279      -0.000572
      9 H                     0.136764      -0.002008
     10 H                     0.122874       0.001801
     11 H                     0.138005       0.000508
     12 C                    -0.291044       1.104344
     13 H                     0.141282      -0.049412
  --------------------------------------------------------
  Sum of atomic charges =    -0.000000

                    Cartesian Multipole Moments
 -----------------------------------------------------------------
    Charge (ESU x 10^10)
                 0.0000
    Dipole Moment (Debye)
         X      -1.4447      Y      -1.5893      Z      -0.6178
       Tot       2.2349
    Quadrupole Moments (Debye-Ang)
        XX     -37.8250     XY      -3.8038     YY     -45.9999
        XZ      -0.3414     YZ      -2.2344     ZZ     -40.6800

 Total job time:  36.39s(wall), 109.15s(cpu)
        *  Thank you very much for using Q-Chem.  Have a nice day.  *
