 Q-Chem 5.0, Q-Chem, Inc., Pleasanton, CA (2017)
 Q-Chem 5.0.2 for Intel X86 EM64T Linux

User input:
--------------------------------------------------------------
$molecule
0 2
C        1.2122158044    0.2649230617    0.0565675483
C        0.6273534282   -1.0108918962    0.8829546424
C       -0.7078680637   -0.9428386213    0.7335138050
C       -1.0651254134    0.0836865077   -0.3333201865
C       -0.6071253169    1.4886695346   -0.0532485272
N        0.6106758825    1.6199895617    0.3381730558
H        2.2730599751    0.4828779523   -0.1324635043
H        1.0959365337   -1.8930228118    1.3391524051
H       -1.4414861525   -1.6340444837    1.1585232511
H       -2.1576898381    0.0933939779   -0.5184747108
H       -1.2434754182    2.3253110707   -0.3207439869
C        0.4209734629   -0.1939470392   -1.1534230703
H        0.9467093510   -0.7174538942   -1.9562567150
$end

$rem
method                b3lyp
basis                 6-31g(d)
unrestricted          true
symmetry              off
sym_ignore            true
incdft                false
incfock               0
scf_convergence       6
thresh                14
jobtype               sp
scf_guess             read
scf_algorithm         diis
max_scf_cycles        100
stability_analysis    true
max_cis_cycles        100
cis_n_roots           4
$end

--------------------------------------------------------------

             Standard Nuclear Orientation (Angstroms)
    I     Atom           X                Y                Z
 ----------------------------------------------------------------
    1      C       1.2122158044     0.2649230617     0.0565675483
    2      C       0.6273534282    -1.0108918962     0.8829546424
    3      C      -0.7078680637    -0.9428386213     0.7335138050
    4      C      -1.0651254134     0.0836865077    -0.3333201865
    5      C      -0.6071253169     1.4886695346    -0.0532485272
    6      N       0.6106758825     1.6199895617     0.3381730558
    7      H       2.2730599751     0.4828779523    -0.1324635043
    8      H       1.0959365337    -1.8930228118     1.3391524051
    9      H      -1.4414861525    -1.6340444837     1.1585232511
   10      H      -2.1576898381     0.0933939779    -0.5184747108
   11      H      -1.2434754182     2.3253110707    -0.3207439869
   12      C       0.4209734629    -0.1939470392    -1.1534230703
   13      H       0.9467093510    -0.7174538942    -1.9562567150
 ----------------------------------------------------------------

    2    -286.7846425327      1.24E-09 Convergence criterion met
 Total energy in the final basis set = -286.78464253

         TDDFT/TDA Excitation Energies
 ---------------------------------------------------

 Excited state   1: excitation energy (eV) =    2.5168
 Total energy for state  1:                  -286.69215232 au
    <S**2>     :  0.8713
    Trans. Mom.:  0.1077 X  -0.0914 Y  -0.1041 Z
    Strength   :     0.0018989498
    S(  1) --> V(  1) amplitude =  0.9640 alpha
    S(  1) --> V(  2) amplitude = -0.1668 alpha

 Excited state   2: excitation energy (eV) =    3.2275
 Total energy for state  2:                  -286.66603256 au
    <S**2>     :  1.1499
    Trans. Mom.: -0.1133 X  -0.1000 Y   0.0243 Z
    Strength   :     0.0018522480
    S(  1) --> V(  1) amplitude =  0.1914 alpha
    S(  1) --> V(  2) amplitude =  0.9031 alpha
    D( 24) --> S(  1) amplitude =  0.1666 beta

 Excited state   3: excitation energy (eV) =    3.9820
 Total energy for state  3:                  -286.63830618 au
    <S**2>     :  2.5727
    Trans. Mom.:  0.0349 X   0.0411 Y  -0.0287 Z
    Strength   :     0.0003643481
    D( 24) --> V(  1) amplitude = -0.5772 alpha
    D( 24) --> V(  2) amplitude = -0.2811 alpha
    D( 23) --> S(  1) amplitude = -0.2882 beta
    D( 23) --> V(  1) amplitude =  0.2135 beta
    D( 24) --> S(  1) amplitude =  0.4177 beta
    D( 24) --> V(  1) amplitude = -0.3643 beta
    D( 24) --> V(  2) amplitude = -0.1513 beta

 Excited state   4: excitation energy (eV) =    4.4866
 Total energy for state  4:                  -286.61976430 au
    <S**2>     :  2.2572
    Trans. Mom.:  0.1073 X   0.1424 Y  -0.0855 Z
    Strength   :     0.0042977685
    D( 22) --> V(  1) amplitude =  0.2168 alpha
    D( 22) --> V(  2) amplitude =  0.1542 alpha
    D( 23) --> V(  1) amplitude =  0.4616 alpha
    S(  1) --> V(  2) amplitude = -0.2024 alpha
    D( 22) --> S(  1) amplitude =  0.2457 beta
    D( 22) --> V(  1) amplitude = -0.1893 beta
    D( 23) --> S(  1) amplitude =  0.5613 beta
    D( 23) --> V(  1) amplitude = -0.3076 beta
    D( 24) --> S(  1) amplitude =  0.2667 beta

 ---------------------------------------------------

                    Orbital Energies (a.u.)
 --------------------------------------------------------------

 Alpha MOs
 -- Occupied --
-14.320 -10.229 -10.226 -10.224 -10.212 -10.208 -10.199  -0.943
 -0.815  -0.729  -0.693  -0.592  -0.571  -0.533  -0.490  -0.463
 -0.422  -0.411  -0.381  -0.368  -0.334  -0.296  -0.266  -0.252
 -0.169

 Beta MOs
 -- Occupied --
-14.318 -10.229 -10.227 -10.224 -10.208 -10.198 -10.196  -0.939
 -0.809  -0.728  -0.679  -0.588  -0.559  -0.529  -0.488  -0.455
 -0.419  -0.407  -0.380  -0.364  -0.329  -0.286  -0.254  -0.247

          Ground-State Mulliken Net Atomic Charges

     Atom                 Charge (a.u.)    Spin (a.u.)
  --------------------------------------------------------
      1 C                    -0.082001      -0.049406
      2 C                    -0.097196      -0.040715
      3 C                    -0.087062       0.161700
      4 C                    -0.224935      -0.069813
      5 C                     0.103396      -0.022519
      6 N                    -0.339322       0.054971
      7 H                     0.151532       0.003305
      8 H                     0.146797       0.003964
      9 H                     0.148400      -0.008288
     10 H                     0.134689       0.002229
     11 H                     0.149041       0.001295
     12 C                    -0.155197       1.013036
     13 H                     0.151859      -0.049760
  --------------------------------------------------------
  Sum of atomic charges =     0.000000

                    Cartesian Multipole Moments
 -----------------------------------------------------------------
    Charge (ESU x 10^10)
                 0.0000
    Dipole Moment (Debye)
         X      -1.2015      Y      -1.9740      Z      -0.6463
       Tot       2.3995
    Quadrupole Moments (Debye-Ang)
        XX     -36.5607     XY      -3.7289     YY     -42.8847
        XZ      -1.2515     YZ      -2.6642     ZZ     -41.9303

 Total job time:  97.43s(wall), 90.86s(cpu)
        *  Thank you very much for using Q-Chem.  Have a nice day.  *
