 Q-Chem 5.0, Q-Chem, Inc., Pleasanton, CA (2017)
 Q-Chem 5.0.2 for Intel X86 EM64T Linux

User input:
--------------------------------------------------------------
$molecule
0 2
C        1.2122158044    0.2649230617    0.0565675483
C        0.6273534282   -1.0108918962    0.8829546424
C       -0.7078680637   -0.9428386213    0.7335138050
C       -1.0651254134    0.0836865077   -0.3333201865
C       -0.6071253169    1.4886695346   -0.0532485272
N        0.6106758825    1.6199895617    0.3381730558
H        2.2730599751    0.4828779523   -0.1324635043
H        1.0959365337   -1.8930228118    1.3391524051
H       -1.4414861525   -1.6340444837    1.1585232511
H       -2.1576898381    0.0933939779   -0.5184747108
H       -1.2434754182    2.3253110707   -0.3207439869
C        0.4209734629   -0.1939470392   -1.1534230703
H        0.9467093510   -0.7174538942   -1.9562567150
$end

$rem
method                b3lyp
basis                 6-31g(d)
unrestricted          true
symmetry              off
sym_ignore            true
incdft                false
incfock               0
scf_convergence       8
thresh                14
jobtype               freq
scf_guess             read
scf_algorithm         diis
max_scf_cycles        100
$end

--------------------------------------------------------------

             Standard Nuclear Orientation (Angstroms)
    I     Atom           X                Y                Z
 ----------------------------------------------------------------
    1      C       1.2122158044     0.2649230617     0.0565675483
    2      C       0.6273534282    -1.0108918962     0.8829546424
    3      C      -0.7078680637    -0.9428386213     0.7335138050
    4      C      -1.0651254134     0.0836865077    -0.3333201865
    5      C      -0.6071253169     1.4886695346    -0.0532485272
    6      N       0.6106758825     1.6199895617     0.3381730558
    7      H       2.2730599751     0.4828779523    -0.1324635043
    8      H       1.0959365337    -1.8930228118     1.3391524051
    9      H      -1.4414861525    -1.6340444837     1.1585232511
   10      H      -2.1576898381     0.0933939779    -0.5184747108
   11      H      -1.2434754182     2.3253110707    -0.3207439869
   12      C       0.4209734629    -0.1939470392    -1.1534230703
   13      H       0.9467093510    -0.7174538942    -1.9562567150
 ----------------------------------------------------------------

    2    -286.7846425328      6.69E-10 Convergence criterion met
 Total energy in the final basis set = -286.78464253

                    Orbital Energies (a.u.)
 --------------------------------------------------------------

 Alpha MOs
 -- Occupied --
-14.320 -10.229 -10.226 -10.224 -10.212 -10.208 -10.199  -0.943
 -0.815  -0.729  -0.693  -0.592  -0.571  -0.533  -0.490  -0.463
 -0.422  -0.411  -0.381  -0.368  -0.334  -0.296  -0.266  -0.252
 -0.169

 Beta MOs
 -- Occupied --
-14.318 -10.229 -10.227 -10.224 -10.208 -10.198 -10.196  -0.939
 -0.809  -0.728  -0.679  -0.588  -0.559  -0.529  -0.488  -0.455
 -0.419  -0.407  -0.380  -0.364  -0.329  -0.286  -0.254  -0.247

          Ground-State Mulliken Net Atomic Charges

     Atom                 Charge (a.u.)    Spin (a.u.)
  --------------------------------------------------------
      1 C                    -0.082001      -0.049406
      2 C                    -0.097196      -0.040715
      3 C                    -0.087062       0.161701
      4 C                    -0.224935      -0.069813
      5 C                     0.103396      -0.022519
      6 N                    -0.339322       0.054971
      7 H                     0.151532       0.003305
      8 H                     0.146797       0.003964
      9 H                     0.148400      -0.008288
     10 H                     0.134689       0.002229
     11 H                     0.149041       0.001295
     12 C                    -0.155197       1.013036
     13 H                     0.151859      -0.049760
  --------------------------------------------------------
  Sum of atomic charges =     0.000000

                    Cartesian Multipole Moments
 -----------------------------------------------------------------
    Charge (ESU x 10^10)
                 0.0000
    Dipole Moment (Debye)
         X      -1.2015      Y      -1.9740      Z      -0.6463
       Tot       2.3995
    Quadrupole Moments (Debye-Ang)
        XX     -36.5607     XY      -3.7289     YY     -42.8847
        XZ      -1.2515     YZ      -2.6642     ZZ     -41.9303

 Frequency:      -549.29                 357.67                 399.48
 Force Cnst:      0.2043                 0.2443                 0.3252
 Red. Mass:       1.1493                 3.2418                 3.4589
 IR Intens:       44.857                  2.892                  3.683
 Frequency:       411.49                 463.04                 525.98
 Force Cnst:      0.4056                 0.5617                 0.5951
 Red. Mass:       4.0658                 4.4463                 3.6510
 IR Intens:        3.002                  1.506                  2.272
 Frequency:       674.09                 702.60                 722.94
 Force Cnst:      1.2427                 1.6274                 0.4260
 Red. Mass:       4.6419                 5.5951                 1.3834
 IR Intens:        1.802                  6.307                 30.716
 Frequency:       772.33                 839.91                 886.44
 Force Cnst:      1.9124                 1.2011                 0.7696
 Red. Mass:       5.4415                 2.8897                 1.6623
 IR Intens:        3.694                 21.047                  9.620
 Frequency:       927.91                 936.29                 953.77
 Force Cnst:      0.7425                 1.7842                 1.2999
 Red. Mass:       1.4636                 3.4543                 2.4255
 IR Intens:        2.031                  5.610                  0.221
 Frequency:       977.31                1046.04                1129.83
 Force Cnst:      1.2573                 1.4341                 0.8887
 Red. Mass:       2.2342                 2.2244                 1.1817
 IR Intens:        1.535                  7.712                  2.648
 Frequency:      1148.60                1174.59                1209.75
 Force Cnst:      1.2814                 1.1619                 1.1208
 Red. Mass:       1.6485                 1.4294                 1.2998
 IR Intens:       19.632                  3.068                  7.013
 Frequency:      1289.21                1298.03                1325.57
 Force Cnst:      1.3278                 1.3200                 1.4152
 Red. Mass:       1.3560                 1.3297                 1.3670
 IR Intens:        8.483                  0.641                 14.107
 Frequency:      1341.23                1604.01                1648.28
 Force Cnst:      1.5343                 7.5597                10.9520
 Red. Mass:       1.4477                 4.9870                 6.8420
 IR Intens:       14.056                  4.965                 11.934
 Frequency:      2988.79                3074.06                3104.98
 Force Cnst:      5.7151                 6.0642                 6.1864
 Red. Mass:       1.0859                 1.0892                 1.0891
 IR Intens:       19.325                 16.277                  6.948
 Frequency:      3147.11                3155.43                3217.64
 Force Cnst:      6.4197                 6.4061                 6.6623
 Red. Mass:       1.1001                 1.0920                 1.0922
 IR Intens:        9.929                  8.104                 32.084

 STANDARD THERMODYNAMIC QUANTITIES AT   298.15 K  AND     1.00 ATM

   This Molecule has  1 Imaginary Frequencies
   Zero point vibrational energy:       62.121 kcal/mol

   Atom    1 Element C  Has Mass   12.00000
   Atom    2 Element C  Has Mass   12.00000
   Atom    3 Element C  Has Mass   12.00000
   Atom    4 Element C  Has Mass   12.00000
   Atom    5 Element C  Has Mass   12.00000
   Atom    6 Element N  Has Mass   14.00307
   Atom    7 Element H  Has Mass    1.00783
   Atom    8 Element H  Has Mass    1.00783
   Atom    9 Element H  Has Mass    1.00783
   Atom   10 Element H  Has Mass    1.00783
   Atom   11 Element H  Has Mass    1.00783
   Atom   12 Element C  Has Mass   12.00000
   Atom   13 Element H  Has Mass    1.00783
   Molecular Mass:    92.050050 amu
   Principal axes and moments of inertia in amu*Bohr^2:
                             1           2           3
    Eigenvalues --      382.09016   494.65933   605.68550
          X               0.03419     0.99731    -0.06478
          Y               0.96936    -0.01732     0.24502
          Z              -0.24324     0.07117     0.96735
   Rotational Symmetry Number is   1
   The Molecule is an Asymmetric Top
   Translational Enthalpy:        0.889 kcal/mol
   Rotational Enthalpy:           0.889 kcal/mol
   Vibrational Enthalpy:         63.568 kcal/mol
   gas constant (RT):             0.592 kcal/mol
   Translational Entropy:        39.471  cal/mol.K
   Rotational Entropy:           26.240  cal/mol.K
   Vibrational Entropy:           6.696  cal/mol.K

   Total Enthalpy:               65.938 kcal/mol
   Total Entropy:                72.407  cal/mol.K

 Total job time:  273.78s(wall), 262.83s(cpu)
        *  Thank you very much for using Q-Chem.  Have a nice day.  *
