 Q-Chem 5.0, Q-Chem, Inc., Pleasanton, CA (2017)
 Q-Chem 5.0.2 for Intel X86 EM64T Linux

User input:
--------------------------------------------------------------
$molecule
0 2
C        1.2179149434    0.1247694157   -0.0301907497
C        0.6084177021   -0.8814384173    0.9592241678
C       -0.7058703275   -0.9479663074    0.6877230016
C       -0.9620341025    0.0121806728   -0.4937019328
C       -0.5832635571    1.4158531267    0.0461801660
N        0.6603167127    1.5098625044    0.3312483434
H        2.3015806614    0.1451485149   -0.1192448897
H        1.1548541111   -1.3789023180    1.7516600165
H       -1.4749383105   -1.5064084993    1.2081794482
H       -1.9104884951   -0.0808782790   -1.0210528782
H       -1.2807257797    2.2379662972    0.1934312263
C        0.3552925298   -0.2065778260   -1.2257351744
H        0.5830981467   -0.4769559645   -2.2467667382
$end

$rem
method                b3lyp
basis                 6-31+g(d,p)
unrestricted          true
symmetry              off
sym_ignore            true
incdft                false
incfock               0
scf_convergence       8
thresh                14
jobtype               freq
scf_guess             read
scf_algorithm         diis
max_scf_cycles        100
$end

--------------------------------------------------------------

             Standard Nuclear Orientation (Angstroms)
    I     Atom           X                Y                Z
 ----------------------------------------------------------------
    1      C       1.2179149434     0.1247694157    -0.0301907497
    2      C       0.6084177021    -0.8814384173     0.9592241678
    3      C      -0.7058703275    -0.9479663074     0.6877230016
    4      C      -0.9620341025     0.0121806728    -0.4937019328
    5      C      -0.5832635571     1.4158531267     0.0461801660
    6      N       0.6603167127     1.5098625044     0.3312483434
    7      H       2.3015806614     0.1451485149    -0.1192448897
    8      H       1.1548541111    -1.3789023180     1.7516600165
    9      H      -1.4749383105    -1.5064084993     1.2081794482
   10      H      -1.9104884951    -0.0808782790    -1.0210528782
   11      H      -1.2807257797     2.2379662972     0.1934312263
   12      C       0.3552925298    -0.2065778260    -1.2257351744
   13      H       0.5830981467    -0.4769559645    -2.2467667382
 ----------------------------------------------------------------

    2    -286.8702742119      5.99E-10 Convergence criterion met
 Total energy in the final basis set = -286.87027421

                    Orbital Energies (a.u.)
 --------------------------------------------------------------

 Alpha MOs
 -- Occupied --
-14.337 -10.235 -10.230 -10.220 -10.211 -10.207 -10.204  -0.963
 -0.828  -0.734  -0.716  -0.585  -0.581  -0.540  -0.521  -0.475
 -0.435  -0.420  -0.391  -0.380  -0.359  -0.304  -0.277  -0.268
 -0.194

 Beta MOs
 -- Occupied --
-14.335 -10.235 -10.231 -10.221 -10.206 -10.203 -10.197  -0.958
 -0.822  -0.733  -0.700  -0.583  -0.566  -0.537  -0.519  -0.465
 -0.431  -0.417  -0.389  -0.378  -0.354  -0.298  -0.271  -0.261

          Ground-State Mulliken Net Atomic Charges

     Atom                 Charge (a.u.)    Spin (a.u.)
  --------------------------------------------------------
      1 C                     0.038550      -0.104150
      2 C                    -0.139557       0.009040
      3 C                    -0.123068       0.078084
      4 C                     0.026200      -0.087064
      5 C                    -0.115370      -0.021515
      6 N                    -0.199220       0.068828
      7 H                     0.126773       0.001899
      8 H                     0.137338      -0.000573
      9 H                     0.136850      -0.002046
     10 H                     0.122852       0.001800
     11 H                     0.138385       0.000507
     12 C                    -0.290862       1.104602
     13 H                     0.141129      -0.049412
  --------------------------------------------------------
  Sum of atomic charges =    -0.000000

                    Cartesian Multipole Moments
 -----------------------------------------------------------------
    Charge (ESU x 10^10)
                -0.0000
    Dipole Moment (Debye)
         X      -1.4442      Y      -1.5866      Z      -0.6182
       Tot       2.2328
    Quadrupole Moments (Debye-Ang)
        XX     -37.8011     XY      -3.8191     YY     -45.9835
        XZ      -0.3312     YZ      -2.2421     ZZ     -40.7082

 Frequency:      -463.45                 432.26                 455.48
 Force Cnst:      0.1392                 0.2860                 0.4244
 Red. Mass:       1.1003                 2.5980                 3.4723
 IR Intens:       41.059                  4.511                  3.724
 Frequency:       491.98                 551.98                 678.59
 Force Cnst:      0.5500                 0.7068                 0.6366
 Red. Mass:       3.8564                 3.9375                 2.3463
 IR Intens:        3.774                  6.663                 19.992
 Frequency:       719.88                 769.63                 820.05
 Force Cnst:      1.9087                 1.1923                 1.1845
 Red. Mass:       6.2513                 3.4164                 2.9895
 IR Intens:        2.803                 41.423                 13.786
 Frequency:       851.57                 862.95                 885.01
 Force Cnst:      1.1486                 1.1466                 1.5759
 Red. Mass:       2.6882                 2.6132                 3.4150
 IR Intens:        5.649                  3.762                  2.958
 Frequency:       908.42                 934.47                 944.20
 Force Cnst:      1.0317                 0.7950                 0.9358
 Red. Mass:       2.1220                 1.5452                 1.7815
 IR Intens:        3.376                 11.884                  5.583
 Frequency:       961.66                 984.73                1110.96
 Force Cnst:      0.7818                 1.3745                 0.9751
 Red. Mass:       1.4348                 2.4058                 1.3410
 IR Intens:        2.502                  1.501                  0.401
 Frequency:      1197.72                1211.55                1234.00
 Force Cnst:      1.8254                 1.2427                 1.1627
 Red. Mass:       2.1597                 1.4369                 1.2960
 IR Intens:        9.599                  4.286                  0.907
 Frequency:      1254.21                1269.90                1284.19
 Force Cnst:      1.1233                 1.4437                 1.3911
 Red. Mass:       1.2120                 1.5195                 1.4317
 IR Intens:        0.523                  4.132                  2.642
 Frequency:      1321.84                1601.21                1649.93
 Force Cnst:      1.6682                 8.4014                12.8099
 Red. Mass:       1.6205                 5.5617                 7.9867
 IR Intens:       22.406                  9.430                 13.969
 Frequency:      3155.15                3173.52                3181.15
 Force Cnst:      6.3918                 6.4708                 6.5269
 Red. Mass:       1.0898                 1.0905                 1.0947
 IR Intens:       18.959                 24.776                 17.774
 Frequency:      3222.51                3246.54                3273.90
 Force Cnst:      6.6475                 6.8744                 6.9223
 Red. Mass:       1.0865                 1.1070                 1.0961
 IR Intens:        3.892                  7.956                  2.690

 STANDARD THERMODYNAMIC QUANTITIES AT   298.15 K  AND     1.00 ATM

   This Molecule has  1 Imaginary Frequencies
   Zero point vibrational energy:       63.818 kcal/mol

   Atom    1 Element C  Has Mass   12.00000
   Atom    2 Element C  Has Mass   12.00000
   Atom    3 Element C  Has Mass   12.00000
   Atom    4 Element C  Has Mass   12.00000
   Atom    5 Element C  Has Mass   12.00000
   Atom    6 Element N  Has Mass   14.00307
   Atom    7 Element H  Has Mass    1.00783
   Atom    8 Element H  Has Mass    1.00783
   Atom    9 Element H  Has Mass    1.00783
   Atom   10 Element H  Has Mass    1.00783
   Atom   11 Element H  Has Mass    1.00783
   Atom   12 Element C  Has Mass   12.00000
   Atom   13 Element H  Has Mass    1.00783
   Molecular Mass:    92.050050 amu
   Principal axes and moments of inertia in amu*Bohr^2:
                             1           2           3
    Eigenvalues --      398.56710   474.75498   546.87973
          X               0.09105     0.96661    -0.23951
          Y               0.96110    -0.02231     0.27531
          Z              -0.26078     0.25526     0.93104
   Rotational Symmetry Number is   1
   The Molecule is an Asymmetric Top
   Translational Enthalpy:        0.889 kcal/mol
   Rotational Enthalpy:           0.889 kcal/mol
   Vibrational Enthalpy:         64.998 kcal/mol
   gas constant (RT):             0.592 kcal/mol
   Translational Entropy:        39.471  cal/mol.K
   Rotational Entropy:           26.140  cal/mol.K
   Vibrational Entropy:           5.260  cal/mol.K

   Total Enthalpy:               67.368 kcal/mol
   Total Entropy:                70.871  cal/mol.K

 Total job time:  564.94s(wall), 551.99s(cpu)
        *  Thank you very much for using Q-Chem.  Have a nice day.  *
