 Q-Chem 5.0, Q-Chem, Inc., Pleasanton, CA (2017)
 Q-Chem 5.0.2 for Intel X86 EM64T Linux

User input:
--------------------------------------------------------------
$molecule
0 2
C        1.2162822352    0.1244111442   -0.0309853898
C        0.6069047239   -0.8817577524    0.9582389111
C       -0.7047276325   -0.9487422303    0.6864653176
C       -0.9611156418    0.0110511223   -0.4943925700
C       -0.5809164843    1.4146141623    0.0469193395
N        0.6603540796    1.5116991538    0.3326865896
H        2.3009311857    0.1448153533   -0.1194463519
H        1.1535525221   -1.3773462299    1.7525081208
H       -1.4750529475   -1.5037083156    1.2098659796
H       -1.9106343682   -0.0823450893   -1.0209894079
H       -1.2804107067    2.2361119205    0.1949323962
C        0.3551563903   -0.2054161296   -1.2271459693
H        0.5838308790   -0.4767341890   -2.2477029587
$end

$rem
method                b3lyp
basis                 6-31+g(d,p)
unrestricted          true
symmetry              off
sym_ignore            true
incdft                false
incfock               0
scf_convergence       8
thresh                14
jobtype               ts
scf_guess             read
scf_algorithm         diis
max_scf_cycles        100
geom_opt_max_cycles   500
geom_opt_dmax         100
geom_opt_tol_gradient 10
geom_opt_hessian      read
$end

--------------------------------------------------------------

    2    -286.8702510026      3.52E-10 Convergence criterion met
 Total energy in the final basis set = -286.87025100
   10    -286.8702742108      8.02E-09 Convergence criterion met
 Total energy in the final basis set = -286.87027421

             Standard Nuclear Orientation (Angstroms)
    I     Atom           X                Y                Z
 ----------------------------------------------------------------
    1      C       1.2179149434     0.1247694157    -0.0301907497
    2      C       0.6084177021    -0.8814384173     0.9592241678
    3      C      -0.7058703275    -0.9479663074     0.6877230016
    4      C      -0.9620341025     0.0121806728    -0.4937019328
    5      C      -0.5832635571     1.4158531267     0.0461801660
    6      N       0.6603167127     1.5098625044     0.3312483434
    7      H       2.3015806614     0.1451485149    -0.1192448897
    8      H       1.1548541111    -1.3789023180     1.7516600165
    9      H      -1.4749383105    -1.5064084993     1.2081794482
   10      H      -1.9104884951    -0.0808782790    -1.0210528782
   11      H      -1.2807257797     2.2379662972     0.1934312263
   12      C       0.3552925298    -0.2065778260    -1.2257351744
   13      H       0.5830981467    -0.4769559645    -2.2467667382
 ----------------------------------------------------------------

    6    -286.8702742120      6.21E-09 Convergence criterion met
 Total energy in the final basis set = -286.87027421
 Final energy is   -286.870274212003
 **  OPTIMIZATION CONVERGED  **

                    Orbital Energies (a.u.)
 --------------------------------------------------------------

 Alpha MOs
 -- Occupied --
-14.337 -10.235 -10.230 -10.220 -10.211 -10.207 -10.204  -0.963
 -0.828  -0.734  -0.716  -0.585  -0.581  -0.540  -0.521  -0.475
 -0.435  -0.420  -0.391  -0.380  -0.359  -0.304  -0.277  -0.268
 -0.194

 Beta MOs
 -- Occupied --
-14.335 -10.235 -10.231 -10.221 -10.206 -10.203 -10.197  -0.958
 -0.822  -0.733  -0.700  -0.583  -0.566  -0.537  -0.519  -0.465
 -0.431  -0.417  -0.389  -0.378  -0.354  -0.298  -0.271  -0.261

          Ground-State Mulliken Net Atomic Charges

     Atom                 Charge (a.u.)    Spin (a.u.)
  --------------------------------------------------------
      1 C                     0.038550      -0.104150
      2 C                    -0.139557       0.009039
      3 C                    -0.123068       0.078085
      4 C                     0.026200      -0.087064
      5 C                    -0.115370      -0.021517
      6 N                    -0.199220       0.068830
      7 H                     0.126773       0.001899
      8 H                     0.137338      -0.000573
      9 H                     0.136850      -0.002046
     10 H                     0.122852       0.001800
     11 H                     0.138385       0.000507
     12 C                    -0.290862       1.104602
     13 H                     0.141129      -0.049412
  --------------------------------------------------------
  Sum of atomic charges =    -0.000000

                    Cartesian Multipole Moments
 -----------------------------------------------------------------
    Charge (ESU x 10^10)
                 0.0000
    Dipole Moment (Debye)
         X      -1.4442      Y      -1.5866      Z      -0.6182
       Tot       2.2328
    Quadrupole Moments (Debye-Ang)
        XX     -37.8011     XY      -3.8191     YY     -45.9835
        XZ      -0.3312     YZ      -2.2421     ZZ     -40.7082

 Total job time:  44.63s(wall), 148.40s(cpu)
        *  Thank you very much for using Q-Chem.  Have a nice day.  *
