 Q-Chem 5.0, Q-Chem, Inc., Pleasanton, CA (2017)
 Q-Chem 5.0.2 for Intel X86 EM64T Linux

User input:
--------------------------------------------------------------
$molecule
0 2
C        1.4028296556    0.2088276836   -1.4943198027
C        0.6065414170   -1.0059615539   -1.2472863349
C       -0.5638290606   -0.6582967983   -2.0565703507
C       -1.0444907237    0.2248110455   -0.5318853283
C       -0.5974984445    0.8700410370   -2.1088847227
N        0.6535680933    1.3381734751   -1.7669688450
H        2.4606957194    0.1944585309   -1.7384961424
H        1.0564885909   -1.9339091054   -1.6570737361
H       -1.5492461655   -1.1686006137   -2.4154767780
H       -1.9667009337    0.7555788142   -0.3742129454
H       -1.1429451665    1.5647860572   -2.7919028783
C       -0.4681029999   -1.0929788885   -0.0454883453
H       -0.3243746206   -1.3114819232    1.0441193973
$end

$rem
method                b3lyp
basis                 6-31g(d)
unrestricted          true
symmetry              off
sym_ignore            true
incdft                false
incfock               0
scf_convergence       8
thresh                14
jobtype               opt
scf_guess             read
scf_algorithm         diis
max_scf_cycles        100
geom_opt_tol_gradient 600
geom_opt_tol_displacement 2400
geom_opt_tol_energy   200
geom_opt_max_cycles   100
$end

--------------------------------------------------------------

    2    -286.6936324126      2.64E-09 Convergence criterion met
 Total energy in the final basis set = -286.69363241
   18    -286.7268543876      5.46E-09 Convergence criterion met
 Total energy in the final basis set = -286.72685439
   18    -286.7533419934      4.74E-09 Convergence criterion met
 Total energy in the final basis set = -286.75334199
   18    -286.7730641996      3.15E-09 Convergence criterion met
 Total energy in the final basis set = -286.77306420
   17    -286.7889023469      6.82E-09 Convergence criterion met
 Total energy in the final basis set = -286.78890235
   16    -286.8015363767      8.03E-09 Convergence criterion met
 Total energy in the final basis set = -286.80153638
   16    -286.8110639237      5.27E-09 Convergence criterion met
 Total energy in the final basis set = -286.81106392
   15    -286.8175231788      7.91E-09 Convergence criterion met
   13    -286.8512761882      7.34E-09 Convergence criterion met
 Total energy in the final basis set = -286.85127619
   12    -286.8514348422      6.90E-09 Convergence criterion met
 Total energy in the final basis set = -286.85143484
   13    -286.8515533734      5.45E-09 Convergence criterion met
 Total energy in the final basis set = -286.85155337
   11    -286.8516095087      6.90E-09 Convergence criterion met
 Total energy in the final basis set = -286.85160951
   12    -286.8516269519      5.78E-09 Convergence criterion met
 Total energy in the final basis set = -286.85162695
   10    -286.8516345401      8.61E-09 Convergence criterion met
 Total energy in the final basis set = -286.85163454

             Standard Nuclear Orientation (Angstroms)
    I     Atom           X                Y                Z
 ----------------------------------------------------------------
    1      C       1.4059467126     0.1891053100    -1.5864335286
    2      C       0.5086577595    -1.0490548624    -1.3868692483
    3      C      -0.5089078210    -0.6754128075    -2.4694313438
    4      C      -1.1162882804     0.3535525240    -0.5131053568
    5      C      -0.6998967673     0.7402085604    -1.9418254986
    6      N       0.7393302887     1.2314689893    -1.8982679653
    7      H       2.4866813967     0.2030845485    -1.4555792129
    8      H       0.9885140332    -2.0277456392    -1.3992975635
    9      H      -1.3348868864    -1.3289835038    -2.7453597803
   10      H      -1.8399769328     0.8902983434     0.0903867046
   11      H      -1.3461530530     1.4373968703    -2.4729402735
   12      C      -0.3859735884    -0.7212081452    -0.1742225824
   13      H      -0.3741115003    -1.2572624272     0.7684988370
 ----------------------------------------------------------------

   10    -286.8516360647      6.99E-09 Convergence criterion met
 Total energy in the final basis set = -286.85163606
 Final energy is   -286.851636064737
 **  OPTIMIZATION CONVERGED  **

                    Orbital Energies (a.u.)
 --------------------------------------------------------------

 Alpha MOs
 -- Occupied --
-14.322 -10.223 -10.220 -10.210 -10.204 -10.201 -10.197  -0.952
 -0.821  -0.726  -0.705  -0.579  -0.573  -0.531  -0.512  -0.472
 -0.418  -0.410  -0.381  -0.373  -0.348  -0.294  -0.271  -0.258
 -0.196

 Beta MOs
 -- Occupied --
-14.321 -10.224 -10.221 -10.210 -10.200 -10.196 -10.190  -0.949
 -0.815  -0.725  -0.690  -0.577  -0.561  -0.527  -0.509  -0.463
 -0.414  -0.406  -0.379  -0.369  -0.342  -0.287  -0.261  -0.255

          Ground-State Mulliken Net Atomic Charges

     Atom                 Charge (a.u.)    Spin (a.u.)
  --------------------------------------------------------
      1 C                     0.092131      -0.008847
      2 C                    -0.245820      -0.043968
      3 C                    -0.096633       0.975955
      4 C                    -0.088223       0.040440
      5 C                    -0.094530      -0.045197
      6 N                    -0.324982       0.022087
      7 H                     0.149652      -0.000172
      8 H                     0.133889       0.002858
      9 H                     0.138909      -0.026635
     10 H                     0.146081       0.000889
     11 H                     0.139800       0.003033
     12 C                    -0.095891       0.079252
     13 H                     0.145617       0.000304
  --------------------------------------------------------
  Sum of atomic charges =    -0.000000

                    Cartesian Multipole Moments
 -----------------------------------------------------------------
    Charge (ESU x 10^10)
                -0.0000
    Dipole Moment (Debye)
         X      -0.7005      Y      -1.9422      Z       1.1713
       Tot       2.3738
    Quadrupole Moments (Debye-Ang)
        XX     -37.3802     XY      -3.6415     YY     -42.4215
        XZ       1.8709     YZ       3.0109     ZZ     -44.0102

 Total job time:  774.14s(wall), 1198.90s(cpu)
        *  Thank you very much for using Q-Chem.  Have a nice day.  *
