 Q-Chem 5.0, Q-Chem, Inc., Pleasanton, CA (2017)
 Q-Chem 5.0.2 for Intel X86 EM64T Linux

User input:
--------------------------------------------------------------
$molecule
0 2
C        1.3114567755   -0.1162065320    0.0259616590
C        0.4418844051   -1.2390916361    0.4482167373
C       -0.8976437888   -1.0931732683    0.5296770564
C       -1.5361078306    0.1962499874    0.2900240044
C       -0.8149818560    1.2699849579   -0.0880329560
N        0.5802056252    1.1956692424   -0.3332554452
H        2.2292437415    0.0289492024    0.5999304189
H        0.9238603706   -2.1681014271    0.7425251969
H       -1.5158977891   -1.9220822517    0.8645391360
H       -2.5958708448    0.3110788104    0.4950543167
H       -1.2334582694    2.2683902757   -0.1610446985
C        1.1892003901    0.4340649579   -1.3304920756
H        1.9114635398    0.8129691389   -2.0498567338
$end

$rem
method                b3lyp
basis                 6-31+g(d,p)
unrestricted          true
symmetry              off
sym_ignore            true
incdft                false
incfock               0
scf_convergence       8
thresh                14
jobtype               opt
scf_guess             read
scf_algorithm         diis
max_scf_cycles        100
geom_opt_max_cycles   300
$end

--------------------------------------------------------------

   20    -286.8624530502      5.86E-09 Convergence criterion met
 Total energy in the final basis set = -286.86245305
   13    -286.8625352860      2.33E-09 Convergence criterion met
 Total energy in the final basis set = -286.86253529
   13    -286.8625665207      2.30E-09 Convergence criterion met
 Total energy in the final basis set = -286.86256652
   11    -286.8625717123      8.20E-09 Convergence criterion met
 Total energy in the final basis set = -286.86257171
   12    -286.8625772976      4.45E-09 Convergence criterion met
 Total energy in the final basis set = -286.86257730
   11    -286.8625794887      4.78E-09 Convergence criterion met
 Total energy in the final basis set = -286.86257949
   11    -286.8625811369      6.48E-09 Convergence criterion met
 Total energy in the final basis set = -286.86258114

             Standard Nuclear Orientation (Angstroms)
    I     Atom           X                Y                Z
 ----------------------------------------------------------------
    1      C       1.3160371131    -0.1104497716     0.0350385011
    2      C       0.4475038294    -1.2284849959     0.4612784209
    3      C      -0.8967248166    -1.0948747600     0.5029455585
    4      C      -1.5350428670     0.1942539698     0.2736658579
    5      C      -0.8131232794     1.2762446290    -0.0811160956
    6      N       0.5778325774     1.2023887141    -0.3471018149
    7      H       2.2358769102     0.0472069136     0.6020840952
    8      H       0.9299697517    -2.1491733208     0.7803792925
    9      H      -1.5159845944    -1.9311554065     0.8141025506
   10      H      -2.5925746977     0.3079208084     0.4923524787
   11      H      -1.2253321772     2.2805187422    -0.1049346896
   12      C       1.1758139994     0.4154315813    -1.3280811704
   13      H       1.8891027200     0.7688743541    -2.0673663684
 ----------------------------------------------------------------

   10    -286.8625815208      9.36E-09 Convergence criterion met
 Total energy in the final basis set = -286.86258152
 Final energy is   -286.862581520751
 **  OPTIMIZATION CONVERGED  **

                    Orbital Energies (a.u.)
 --------------------------------------------------------------

 Alpha MOs
 -- Occupied --
-14.372 -10.241 -10.234 -10.231 -10.207 -10.204 -10.200  -0.995
 -0.818  -0.784  -0.672  -0.648  -0.579  -0.529  -0.503  -0.487
 -0.461  -0.433  -0.400  -0.377  -0.365  -0.319  -0.288  -0.234
 -0.198

 Beta MOs
 -- Occupied --
-14.369 -10.241 -10.231 -10.221 -10.206 -10.204 -10.200  -0.986
 -0.816  -0.781  -0.664  -0.646  -0.565  -0.524  -0.496  -0.484
 -0.452  -0.428  -0.395  -0.374  -0.362  -0.308  -0.281  -0.218

          Ground-State Mulliken Net Atomic Charges

     Atom                 Charge (a.u.)    Spin (a.u.)
  --------------------------------------------------------
      1 C                    -0.072697      -0.085793
      2 C                     0.007134       0.040017
      3 C                    -0.228515      -0.020163
      4 C                     0.093917       0.086592
      5 C                    -0.207730      -0.102604
      6 N                    -0.162243       0.127366
      7 H                     0.142106       0.004189
      8 H                     0.130475      -0.001577
      9 H                     0.126660       0.000556
     10 H                     0.127504       0.002757
     11 H                     0.134774      -0.001239
     12 C                    -0.232565       0.942695
     13 H                     0.141180       0.007203
  --------------------------------------------------------
  Sum of atomic charges =     0.000000

                    Cartesian Multipole Moments
 -----------------------------------------------------------------
    Charge (ESU x 10^10)
                 0.0000
    Dipole Moment (Debye)
         X      -0.0101      Y      -0.6500      Z       0.4765
       Tot       0.8060
    Quadrupole Moments (Debye-Ang)
        XX     -37.0045     XY      -1.5174     YY     -40.9168
        XZ      -1.4410     YZ      -2.2451     ZZ     -43.6311

 Total job time:  235.21s(wall), 653.71s(cpu)
        *  Thank you very much for using Q-Chem.  Have a nice day.  *
