 Q-Chem 5.0, Q-Chem, Inc., Pleasanton, CA (2017)
 Q-Chem 5.0.2 for Intel X86 EM64T Linux

User input:
--------------------------------------------------------------
$molecule
0 2
C        1.6148949458    0.1453523747   -0.8653715982
C        0.1778689086   -1.5844679029    1.3089479915
C       -1.0329454095   -1.1983333284    0.9254017826
C       -1.4361548166    0.0371933324    0.2567814419
C       -0.6313608641    1.0273458886   -0.1903000268
N        0.7688133857    1.0769653373   -0.0246791162
H        1.9156185398   -0.8867212377   -0.8398037336
H        0.5843256393   -2.4354017206    1.8406849593
H       -1.8609574360   -1.8827083751    1.1550248290
H       -2.5054704514    0.1794319896    0.1287308446
H       -1.0748377863    1.9230318826   -0.6255782455
C        1.5938033784    1.3702900506   -1.2441114669
H        1.8864019663    2.2280217088   -1.8257276616
$end

$rem
method                b3lyp
basis                 6-31+g(d,p)
unrestricted          true
symmetry              off
sym_ignore            true
incdft                false
incfock               0
scf_convergence       6
thresh                14
jobtype               sp
scf_guess             read
scf_algorithm         diis
max_scf_cycles        100
stability_analysis    true
max_cis_cycles        100
cis_n_roots           4
$end

--------------------------------------------------------------

             Standard Nuclear Orientation (Angstroms)
    I     Atom           X                Y                Z
 ----------------------------------------------------------------
    1      C       1.6148949458     0.1453523747    -0.8653715982
    2      C       0.1778689086    -1.5844679029     1.3089479915
    3      C      -1.0329454095    -1.1983333284     0.9254017826
    4      C      -1.4361548166     0.0371933324     0.2567814419
    5      C      -0.6313608641     1.0273458886    -0.1903000268
    6      N       0.7688133857     1.0769653373    -0.0246791162
    7      H       1.9156185398    -0.8867212377    -0.8398037336
    8      H       0.5843256393    -2.4354017206     1.8406849593
    9      H      -1.8609574360    -1.8827083751     1.1550248290
   10      H      -2.5054704514     0.1794319896     0.1287308446
   11      H      -1.0748377863     1.9230318826    -0.6255782455
   12      C       1.5938033784     1.3702900506    -1.2441114669
   13      H       1.8864019663     2.2280217088    -1.8257276616
 ----------------------------------------------------------------

    2    -286.7509188236      1.69E-09 Convergence criterion met
 Total energy in the final basis set = -286.75091882

         TDDFT/TDA Excitation Energies
 ---------------------------------------------------

 Excited state   1: excitation energy (eV) =    2.0596
 Total energy for state  1:                  -286.67523085 au
    <S**2>     :  0.7822
    Trans. Mom.: -0.0490 X   0.0493 Y   0.1280 Z
    Strength   :     0.0010713204
    D( 23) --> S(  1) amplitude = -0.2550 beta
    D( 24) --> S(  1) amplitude =  0.9498 beta

 Excited state   2: excitation energy (eV) =    2.8311
 Total energy for state  2:                  -286.64687733 au
    <S**2>     :  2.7285
    Trans. Mom.: -0.0181 X  -0.0108 Y  -0.0002 Z
    Strength   :     0.0000307447
    D( 23) --> V(  1) amplitude =  0.1939 alpha
    S(  1) --> V(  1) amplitude =  0.6596 alpha
    D( 24) --> V(  1) amplitude = -0.6505 beta

 Excited state   3: excitation energy (eV) =    2.9761
 Total energy for state  3:                  -286.64154871 au
    <S**2>     :  2.7321
    Trans. Mom.:  0.0101 X   0.0016 Y  -0.0081 Z
    Strength   :     0.0000124080
    D( 23) --> V(  2) amplitude = -0.2779 alpha
    S(  1) --> V(  2) amplitude =  0.5946 alpha
    D( 23) --> V(  1) amplitude = -0.1690 beta
    D( 23) --> V(  2) amplitude = -0.2942 beta
    D( 24) --> V(  2) amplitude = -0.6038 beta

 Excited state   4: excitation energy (eV) =    3.3384
 Total energy for state  4:                  -286.62823659 au
    <S**2>     :  0.8179
    Trans. Mom.:  0.0184 X   0.0078 Y  -0.0301 Z
    Strength   :     0.0001068047
    D( 24) --> V(  1) amplitude =  0.2097 alpha
    D( 22) --> S(  1) amplitude = -0.1815 beta
    D( 23) --> S(  1) amplitude =  0.8924 beta
    D( 24) --> S(  1) amplitude =  0.2922 beta

 ---------------------------------------------------

                    Orbital Energies (a.u.)
 --------------------------------------------------------------

 Alpha MOs
 -- Occupied --
-14.366 -10.252 -10.250 -10.218 -10.210 -10.204 -10.192  -0.985
 -0.813  -0.757  -0.682  -0.606  -0.597  -0.546  -0.505  -0.489
 -0.444  -0.421  -0.394  -0.385  -0.332  -0.315  -0.250  -0.232
 -0.206

 Beta MOs
 -- Occupied --
-14.366 -10.252 -10.250 -10.218 -10.205 -10.194 -10.191  -0.985
 -0.809  -0.748  -0.674  -0.605  -0.587  -0.541  -0.498  -0.483
 -0.441  -0.410  -0.393  -0.382  -0.329  -0.313  -0.246  -0.202

          Ground-State Mulliken Net Atomic Charges

     Atom                 Charge (a.u.)    Spin (a.u.)
  --------------------------------------------------------
      1 C                    -0.039066      -0.003933
      2 C                    -0.348718       1.201143
      3 C                    -0.118356      -0.270741
      4 C                    -0.093673       0.092015
      5 C                    -0.036634      -0.117132
      6 N                    -0.162827      -0.000186
      7 H                     0.172934      -0.000204
      8 H                     0.146269       0.009119
      9 H                     0.136663       0.082512
     10 H                     0.119082      -0.002573
     11 H                     0.122456       0.004694
     12 C                    -0.059577       0.003779
     13 H                     0.161446       0.001506
  --------------------------------------------------------
  Sum of atomic charges =    -0.000000

                    Cartesian Multipole Moments
 -----------------------------------------------------------------
    Charge (ESU x 10^10)
                -0.0000
    Dipole Moment (Debye)
         X       0.2838      Y      -0.2352      Z      -1.8318
       Tot       1.8685
    Quadrupole Moments (Debye-Ang)
        XX     -38.1075     XY      -0.2417     YY     -36.9012
        XZ      -3.3662     YZ      -5.9796     ZZ     -43.3310

 Total job time:  199.79s(wall), 179.33s(cpu)
        *  Thank you very much for using Q-Chem.  Have a nice day.  *
