 Q-Chem 5.0, Q-Chem, Inc., Pleasanton, CA (2017)
 Q-Chem 5.0.2 for Intel X86 EM64T Linux

User input:
--------------------------------------------------------------
$molecule
0 2
C        1.3165483078   -0.1088114222    0.0324810691
C        0.4480150241   -1.2268466465    0.4587209889
C       -0.8962136219   -1.0932364106    0.5003881265
C       -1.5345316723    0.1958923192    0.2711084259
C       -0.8126120847    1.2778829784   -0.0836735276
N        0.5783437721    1.2040270635   -0.3496592469
H        2.2363881049    0.0488452630    0.5995266632
H        0.9304809464   -2.1475349714    0.7778218605
H       -1.5154733997   -1.9295170571    0.8115451186
H       -2.5920635030    0.3095591578    0.4897950467
H       -1.2248209825    2.2821570916   -0.1074921216
C        1.1763251941    0.4170699307   -1.3306386024
H        1.8896139147    0.7705127035   -2.0699238004
$end

$rem
method                b3lyp
basis                 6-31+g(d,p)
unrestricted          true
symmetry              off
sym_ignore            true
incdft                false
incfock               0
scf_convergence       8
thresh                14
jobtype               sp
scf_guess             read
scf_algorithm         diis
max_scf_cycles        100
scf_final_print       1
$end

--------------------------------------------------------------

             Standard Nuclear Orientation (Angstroms)
    I     Atom           X                Y                Z
 ----------------------------------------------------------------
    1      C       1.3165483078    -0.1088114222     0.0324810691
    2      C       0.4480150241    -1.2268466465     0.4587209889
    3      C      -0.8962136219    -1.0932364106     0.5003881265
    4      C      -1.5345316723     0.1958923192     0.2711084259
    5      C      -0.8126120847     1.2778829784    -0.0836735276
    6      N       0.5783437721     1.2040270635    -0.3496592469
    7      H       2.2363881049     0.0488452630     0.5995266632
    8      H       0.9304809464    -2.1475349714     0.7778218605
    9      H      -1.5154733997    -1.9295170571     0.8115451186
   10      H      -2.5920635030     0.3095591578     0.4897950467
   11      H      -1.2248209825     2.2821570916    -0.1074921216
   12      C       1.1763251941     0.4170699307    -1.3306386024
   13      H       1.8896139147     0.7705127035    -2.0699238004
 ----------------------------------------------------------------

    2    -286.8625815207      2.91E-09 Convergence criterion met
 Total energy in the final basis set = -286.86258152

                    Orbital Energies (a.u.)
 --------------------------------------------------------------

 Alpha MOs
 -- Occupied --
-14.372 -10.241 -10.234 -10.231 -10.207 -10.204 -10.200  -0.995
 -0.818  -0.784  -0.672  -0.648  -0.579  -0.529  -0.503  -0.487
 -0.461  -0.433  -0.400  -0.377  -0.365  -0.319  -0.288  -0.234
 -0.198

 Beta MOs
 -- Occupied --
-14.369 -10.241 -10.231 -10.221 -10.206 -10.204 -10.200  -0.986
 -0.816  -0.781  -0.664  -0.646  -0.565  -0.524  -0.496  -0.484
 -0.452  -0.428  -0.395  -0.374  -0.362  -0.308  -0.281  -0.218

          Ground-State Mulliken Net Atomic Charges

     Atom                 Charge (a.u.)    Spin (a.u.)
  --------------------------------------------------------
      1 C                    -0.072697      -0.085790
      2 C                     0.007134       0.040005
      3 C                    -0.228515      -0.020154
      4 C                     0.093917       0.086567
      5 C                    -0.207730      -0.102577
      6 N                    -0.162243       0.127363
      7 H                     0.142106       0.004189
      8 H                     0.130475      -0.001576
      9 H                     0.126660       0.000556
     10 H                     0.127503       0.002759
     11 H                     0.134774      -0.001241
     12 C                    -0.232564       0.942696
     13 H                     0.141180       0.007203
  --------------------------------------------------------
  Sum of atomic charges =    -0.000000

                    Cartesian Multipole Moments
 -----------------------------------------------------------------
    Charge (ESU x 10^10)
                -0.0000
    Dipole Moment (Debye)
         X      -0.0101      Y      -0.6500      Z       0.4765
       Tot       0.8060
    Quadrupole Moments (Debye-Ang)
        XX     -37.0045     XY      -1.5178     YY     -40.9189
        XZ      -1.4407     YZ      -2.2426     ZZ     -43.6336

 Total job time:  5.91s(wall), 11.71s(cpu)
        *  Thank you very much for using Q-Chem.  Have a nice day.  *
