 Q-Chem 5.0, Q-Chem, Inc., Pleasanton, CA (2017)
 Q-Chem 5.0.2 for Intel X86 EM64T Linux

User input:
--------------------------------------------------------------
$molecule
0 2
C        1.3127821609   -0.0975170434    0.0429889822
C        0.4495302049   -1.2278573684    0.4504356029
C       -0.8931772870   -1.1032169608    0.4863742998
C       -1.5384400085    0.1829397450    0.2617716063
C       -0.8213794854    1.2682334863   -0.0840785854
N        0.5726430580    1.2083824747   -0.3339975311
H        2.2245575760    0.0623983828    0.6240245080
H        0.9373115305   -2.1508125059    0.7561629190
H       -1.5108367987   -1.9468426359    0.7828363665
H       -2.5987864045    0.2871563109    0.4740187789
H       -1.2423038934    2.2696237481   -0.1135147157
C        1.1871834179    0.4348999364   -1.3192550327
H        1.9209159297    0.8126124300   -2.0277671992
****
C        1.6206863912    0.1639680038   -0.8020044297
C        0.1881315629   -1.5841032205    1.2879900258
C       -1.0197172133   -1.2123556446    0.8873683060
C       -1.4326340420    0.0339392760    0.2453226063
C       -0.6401105781    1.0414661278   -0.1770190011
N        0.7590354153    1.1210209872   -0.0029032136
H        1.9242631762   -0.8656300607   -0.7308183619
H        0.5906042800   -2.4477793889    1.8035663510
H       -1.8413623619   -1.9179738174    1.0742716886
H       -2.5039764228    0.1646869333    0.1149926984
H       -1.0952730253    1.9388153736   -0.5974972305
C        1.5854798544    1.3658623963   -1.2390912839
H        1.8648729635    2.1980830339   -1.8641781555
$end

$rem
method                b3lyp
basis                 6-31g(d)
unrestricted          true
symmetry              off
sym_ignore            true
incdft                false
incfock               0
scf_convergence       8
thresh                14
jobtype               fsm
scf_guess             core
scf_guess_mix         5
scf_algorithm         diis
max_scf_cycles        100
fsm_nnode             21
fsm_ngrad             6
fsm_mode              2
fsm_opt_mode          2
$end

--------------------------------------------------------------

   23    -286.8405126521      5.09E-09 Convergence criterion met
 Total energy in the final basis set = -286.84051265
   23    -286.7239694399      7.47E-09 Convergence criterion met
 Total energy in the final basis set = -286.72396944
   23    -286.8369806129      8.07E-09 Convergence criterion met
 Total energy in the final basis set = -286.83698061
   23    -286.8361212219      4.00E-09 Convergence criterion met
 Total energy in the final basis set = -286.83612122
   23    -286.8389196835      5.75E-09 Convergence criterion met
 Total energy in the final basis set = -286.83891968
   23    -286.7234572881      7.53E-09 Convergence criterion met
 Total energy in the final basis set = -286.72345729
   23    -286.7200592405      6.45E-09 Convergence criterion met
 Total energy in the final basis set = -286.72005924
   23    -286.7191516340      7.95E-09 Convergence criterion met
 Total energy in the final basis set = -286.71286687
   25    -286.7127802782      5.60E-09 Convergence criterion met
 Total energy in the final basis set = -286.71278028
   25    -286.7128694126      5.68E-09 Convergence criterion met
 Total energy in the final basis set = -286.71286941
   25    -286.7127785121      5.59E-09 Convergence criterion met
 Total energy in the final basis set = -286.71277851
   25    -286.7128820670      5.68E-09 Convergence criterion met
 Total energy in the final basis set = -286.71288207
   25    -286.7127658521      5.59E-09 Convergence criterion met
 Total energy in the final basis set = -286.71276585
   25    -286.7128734009      5.70E-09 Convergence criterion met
 Total energy in the final basis set = -286.71287340
   25    -286.7127751196      5.57E-09 Convergence criterion met
 Total energy in the final basis set = -286.71277512

                    Orbital Energies (a.u.)
 --------------------------------------------------------------

 Alpha MOs
 -- Occupied --
-14.350 -10.239 -10.236 -10.207 -10.200 -10.194 -10.181  -0.970
 -0.801  -0.745  -0.667  -0.599  -0.586  -0.523  -0.492  -0.486
 -0.433  -0.411  -0.379  -0.367  -0.331  -0.302  -0.242  -0.208
 -0.191

 Beta MOs
 -- Occupied --
-14.350 -10.239 -10.234 -10.208 -10.195 -10.185 -10.180  -0.968
 -0.797  -0.737  -0.659  -0.593  -0.576  -0.518  -0.487  -0.480
 -0.429  -0.403  -0.375  -0.364  -0.325  -0.297  -0.234  -0.187

          Ground-State Mulliken Net Atomic Charges

     Atom                 Charge (a.u.)    Spin (a.u.)
  --------------------------------------------------------
      1 C                    -0.042441      -0.229601
      2 C                    -0.222031       0.933257
      3 C                    -0.114838      -0.162279
      4 C                    -0.113449       0.060891
      5 C                     0.003613      -0.052293
      6 N                    -0.382047       0.021181
      7 H                     0.191952       0.014707
      8 H                     0.152659       0.006361
      9 H                     0.139417       0.072261
     10 H                     0.126024       0.000299
     11 H                     0.135859       0.006025
     12 C                    -0.050396       0.342872
     13 H                     0.175678      -0.013681
  --------------------------------------------------------
  Sum of atomic charges =     0.000000

                    Cartesian Multipole Moments
 -----------------------------------------------------------------
    Charge (ESU x 10^10)
                -0.0000
    Dipole Moment (Debye)
         X       0.4461      Y      -0.8175      Z      -1.0580
       Tot       1.4095
    Quadrupole Moments (Debye-Ang)
        XX     -35.4026     XY      -1.4043     YY     -38.9374
        XZ      -2.0259     YZ      -5.3046     ZZ     -40.6073

             Standard Nuclear Orientation (Angstroms)
    I     Atom           X                Y                Z
 ----------------------------------------------------------------
    1      C       1.6784805107     0.2140532648    -0.3008949031
    2      C       0.1878420000    -1.6661265785     0.8108548320
    3      C      -1.0540769106    -1.2170487720     0.7434216533
    4      C      -1.4723255795     0.1088044655     0.2875384414
    5      C      -0.6951710806     1.1405477703    -0.1017315933
    6      N       0.7158140241     1.3471005425    -0.0612779140
    7      H       2.4857990085    -0.2431099919     0.2392216547
    8      H       0.6637848717    -2.5844163971     1.1403042137
    9      H      -1.8650231318    -1.9004598004     1.0186716501
   10      H      -2.5470783538     0.2789986927     0.2677175729
   11      H      -1.1826066173     2.0573107811    -0.4358191607
   12      C       1.3975174313     0.9659845406    -1.3326389413
   13      H       1.6803982983     1.4770629373    -2.2421208902
 ----------------------------------------------------------------

 Total job time:  1607.90s(wall), 4478.38s(cpu)
        *  Thank you very much for using Q-Chem.  Have a nice day.  *
