 Q-Chem 5.0, Q-Chem, Inc., Pleasanton, CA (2017)
 Q-Chem 5.0.2 for Intel X86 EM64T Linux

User input:
--------------------------------------------------------------
$molecule
0 2
C        1.7124023074    0.3570010938   -0.2954301372
C        0.1782871412   -1.8207164634    0.7523134609
C       -0.9976233437   -1.2167238966    0.7988114462
C       -1.4142363806    0.0897522221    0.2759000108
C       -0.6959589012    1.1491340711   -0.1582265402
N        0.6895701670    1.4414244162   -0.1032102182
H        2.2501400818   -0.3459026385    0.3117679468
H        0.5779547538   -2.7779833393    1.0602689736
H       -1.8122977856   -1.7822445894    1.2725577962
H       -2.4928310126    0.2253100378    0.2393135817
H       -1.2522810800    2.0150319703   -0.5158559720
C        1.5281503633    1.1130942520   -1.3165792116
H        1.7220781617    1.5315243228   -2.2883845309
$end

$rem
method                b3lyp
basis                 6-31+g(d,p)
unrestricted          true
symmetry              off
sym_ignore            true
incdft                false
incfock               0
scf_convergence       8
thresh                14
jobtype               opt
scf_guess             read
scf_algorithm         diis
max_scf_cycles        100
geom_opt_max_cycles   300
$end

--------------------------------------------------------------

   20    -286.7452645028      6.52E-09 Convergence criterion met
 Total energy in the final basis set = -286.74526450
   17    -286.7462033567      4.38E-09 Convergence criterion met
 Total energy in the final basis set = -286.74620336
   17    -286.7470343366      3.70E-09 Convergence criterion met
 Total energy in the final basis set = -286.74703434
   15    -286.7474855690      5.78E-09 Convergence criterion met
 Total energy in the final basis set = -286.74748557
   15    -286.7484147235      4.26E-09 Convergence criterion met
 Total energy in the final basis set = -286.74841472
   15    -286.7499900805      8.46E-09 Convergence criterion met
 Total energy in the final basis set = -286.74999008
   14    -286.7505899861      9.15E-09 Convergence criterion met
 Total energy in the final basis set = -286.75058999
   13    -286.7507744425      9.77E-09 Convergence criterion met
   12    -286.7508934085      6.81E-09 Convergence criterion met
 Total energy in the final basis set = -286.75089341
   11    -286.7509007955      7.63E-09 Convergence criterion met
 Total energy in the final basis set = -286.75090080
   11    -286.7509055006      5.80E-09 Convergence criterion met
 Total energy in the final basis set = -286.75090550
   10    -286.7509072201      8.05E-09 Convergence criterion met
 Total energy in the final basis set = -286.75090722
   10    -286.7509085885      9.61E-09 Convergence criterion met
 Total energy in the final basis set = -286.75090859
   11    -286.7509098683      5.84E-09 Convergence criterion met
 Total energy in the final basis set = -286.75090987

             Standard Nuclear Orientation (Angstroms)
    I     Atom           X                Y                Z
 ----------------------------------------------------------------
    1      C       1.6391022493     0.1891736337    -0.8026979909
    2      C       0.1663821214    -1.5994422011     1.2964800594
    3      C      -1.0382871808    -1.2337632397     0.8754418839
    4      C      -1.4448435370     0.0022261921     0.2097386769
    5      C      -0.6470299557     1.0155748759    -0.1960473667
    6      N       0.7453244276     1.0928516890     0.0176860284
    7      H       1.9600480564    -0.8368246241    -0.7775901557
    8      H       0.5723866558    -2.4491737412     1.8304774221
    9      H      -1.8588245781    -1.9386142220     1.0669011896
   10      H      -2.5120084201     0.1236681406     0.0470023991
   11      H      -1.0950064193     1.9079173276    -0.6335363477
   12      C       1.6049544501     1.4172919477    -1.1701298219
   13      H       1.9011566029     2.2878156806    -1.7304793702
 ----------------------------------------------------------------

   11    -286.7509107312      3.44E-09 Convergence criterion met
 Total energy in the final basis set = -286.75091073
 Final energy is   -286.750910731191
 **  OPTIMIZATION CONVERGED  **

                    Orbital Energies (a.u.)
 --------------------------------------------------------------

 Alpha MOs
 -- Occupied --
-14.366 -10.252 -10.250 -10.218 -10.210 -10.204 -10.192  -0.985
 -0.813  -0.757  -0.682  -0.606  -0.597  -0.546  -0.505  -0.489
 -0.444  -0.421  -0.394  -0.385  -0.332  -0.315  -0.250  -0.232
 -0.206

 Beta MOs
 -- Occupied --
-14.366 -10.252 -10.250 -10.218 -10.205 -10.195 -10.191  -0.985
 -0.809  -0.748  -0.674  -0.605  -0.587  -0.541  -0.498  -0.483
 -0.441  -0.410  -0.393  -0.382  -0.329  -0.313  -0.246  -0.202

          Ground-State Mulliken Net Atomic Charges

     Atom                 Charge (a.u.)    Spin (a.u.)
  --------------------------------------------------------
      1 C                    -0.038721      -0.004000
      2 C                    -0.348476       1.201088
      3 C                    -0.118006      -0.270674
      4 C                    -0.093414       0.091891
      5 C                    -0.037223      -0.117032
      6 N                    -0.162854      -0.000234
      7 H                     0.172896      -0.000200
      8 H                     0.146293       0.009136
      9 H                     0.136695       0.082532
     10 H                     0.119068      -0.002575
     11 H                     0.122514       0.004688
     12 C                    -0.060307       0.003884
     13 H                     0.161534       0.001497
  --------------------------------------------------------
  Sum of atomic charges =    -0.000000

                    Cartesian Multipole Moments
 -----------------------------------------------------------------
    Charge (ESU x 10^10)
                 0.0000
    Dipole Moment (Debye)
         X       0.3520      Y      -0.2083      Z      -1.8216
       Tot       1.8669
    Quadrupole Moments (Debye-Ang)
        XX     -37.8761     XY      -0.0199     YY     -36.7591
        XZ      -3.0479     YZ      -5.9657     ZZ     -43.7198

 Total job time:  484.42s(wall), 1385.15s(cpu)
        *  Thank you very much for using Q-Chem.  Have a nice day.  *
