 Q-Chem 5.0, Q-Chem, Inc., Pleasanton, CA (2017)
 Q-Chem 5.0.2 for Intel X86 EM64T Linux

User input:
--------------------------------------------------------------
$molecule
0 2
C        1.6165358098    0.1621626623   -0.8019671012
C        0.1900972918   -1.5800551584    1.2913079302
C       -1.0175681914   -1.2118971903    0.8859353060
C       -1.4319523032    0.0344194211    0.2448077611
C       -0.6407607968    1.0435420595   -0.1756527944
N        0.7585240920    1.1218764387   -0.0028180518
H        1.9158151710   -0.8686096875   -0.7296598834
H        0.5925648229   -2.4447102664    1.8056986174
H       -1.8367081740   -1.9222110276    1.0651710455
H       -2.5034120517    0.1640875571    0.1147905441
H       -1.0955305966    1.9419087084   -0.5942551389
C        1.5853064808    1.3640648835   -1.2391224048
H        1.8670884455    2.1954215995   -1.8642358300
$end

$rem
method                b3lyp
basis                 6-31g(d)
unrestricted          true
symmetry              off
sym_ignore            true
incdft                false
incfock               0
scf_convergence       8
thresh                14
jobtype               opt
scf_guess             core
scf_guess_mix         5
scf_algorithm         diis
max_scf_cycles        100
geom_opt_max_cycles   300
$end

--------------------------------------------------------------

   23    -286.7239673406      7.43E-09 Convergence criterion met
 Total energy in the final basis set = -286.72396734
   17    -286.7239686899      5.00E-09 Convergence criterion met
 Total energy in the final basis set = -286.72396869

             Standard Nuclear Orientation (Angstroms)
    I     Atom           X                Y                Z
 ----------------------------------------------------------------
    1      C       1.6206863912     0.1639680038    -0.8020044297
    2      C       0.1881315629    -1.5841032205     1.2879900258
    3      C      -1.0197172133    -1.2123556446     0.8873683060
    4      C      -1.4326340420     0.0339392760     0.2453226063
    5      C      -0.6401105781     1.0414661278    -0.1770190011
    6      N       0.7590354153     1.1210209872    -0.0029032136
    7      H       1.9242631762    -0.8656300607    -0.7308183619
    8      H       0.5906042800    -2.4477793889     1.8035663510
    9      H      -1.8413623619    -1.9179738174     1.0742716886
   10      H      -2.5039764228     0.1646869333     0.1149926984
   11      H      -1.0952730253     1.9388153736    -0.5974972305
   12      C       1.5854798544     1.3658623963    -1.2390912839
   13      H       1.8648729635     2.1980830339    -1.8641781555
 ----------------------------------------------------------------

   17    -286.7239695516      4.88E-09 Convergence criterion met
 Total energy in the final basis set = -286.72396955
 Final energy is   -286.723969551641
 **  OPTIMIZATION CONVERGED  **

                    Orbital Energies (a.u.)
 --------------------------------------------------------------

 Alpha MOs
 -- Occupied --
-14.350 -10.239 -10.238 -10.204 -10.196 -10.191 -10.178  -0.969
 -0.799  -0.744  -0.670  -0.596  -0.586  -0.535  -0.494  -0.479
 -0.432  -0.409  -0.381  -0.373  -0.318  -0.302  -0.238  -0.222
 -0.192

 Beta MOs
 -- Occupied --
-14.350 -10.239 -10.238 -10.205 -10.192 -10.181 -10.177  -0.969
 -0.795  -0.736  -0.661  -0.596  -0.577  -0.530  -0.486  -0.473
 -0.429  -0.398  -0.381  -0.371  -0.315  -0.300  -0.233  -0.187

          Ground-State Mulliken Net Atomic Charges

     Atom                 Charge (a.u.)    Spin (a.u.)
  --------------------------------------------------------
      1 C                     0.010002       0.002985
      2 C                    -0.225821       1.056970
      3 C                    -0.133191      -0.163913
      4 C                    -0.116714       0.069489
      5 C                     0.008624      -0.059254
      6 N                    -0.388431      -0.001584
      7 H                     0.179978       0.002135
      8 H                     0.153374       0.005562
      9 H                     0.139291       0.083450
     10 H                     0.122716      -0.002499
     11 H                     0.128566       0.004653
     12 C                    -0.052156       0.000208
     13 H                     0.173763       0.001798
  --------------------------------------------------------
  Sum of atomic charges =    -0.000000

                    Cartesian Multipole Moments
 -----------------------------------------------------------------
    Charge (ESU x 10^10)
                -0.0000
    Dipole Moment (Debye)
         X       0.3072      Y      -0.3893      Z      -1.8983
       Tot       1.9620
    Quadrupole Moments (Debye-Ang)
        XX     -36.8460     XY      -0.3311     YY     -35.8943
        XZ      -2.9591     YZ      -5.6018     ZZ     -41.0143

 Total job time:  61.48s(wall), 165.12s(cpu)
        *  Thank you very much for using Q-Chem.  Have a nice day.  *
