 Q-Chem 5.0, Q-Chem, Inc., Pleasanton, CA (2017)
 Q-Chem 5.0.2 for Intel X86 EM64T Linux

User input:
--------------------------------------------------------------
$molecule
0 2
C        1.6820569399    0.3169688837   -0.2373610110
C        0.1907787383   -1.7788354125    0.6453504685
C       -0.9909686898   -1.2008274153    0.7779623119
C       -1.4329890698    0.1086167491    0.2818620048
C       -0.7151988343    1.1667062145   -0.1501464294
N        0.6784239362    1.4387843657   -0.1198135413
H        2.2796806844   -0.2765765260    0.4267528756
H        0.6275758599   -2.7284552550    0.9273115106
H       -1.7711026419   -1.7739195653    1.2973987706
H       -2.5121911216    0.2424227112    0.2646041912
H       -1.2632668541    2.0426333613   -0.4944351930
C        1.5034656264    1.0245418155   -1.2994760523
H        1.7170898977    1.3966415278   -2.2867632908
$end

$rem
method                b3lyp
basis                 6-31+g(d,p)
unrestricted          true
symmetry              off
sym_ignore            true
incdft                false
incfock               0
scf_convergence       8
thresh                14
jobtype               freq
scf_guess             read
scf_algorithm         diis
max_scf_cycles        100
$end

--------------------------------------------------------------

             Standard Nuclear Orientation (Angstroms)
    I     Atom           X                Y                Z
 ----------------------------------------------------------------
    1      C       1.6820569399     0.3169688837    -0.2373610110
    2      C       0.1907787383    -1.7788354125     0.6453504685
    3      C      -0.9909686898    -1.2008274153     0.7779623119
    4      C      -1.4329890698     0.1086167491     0.2818620048
    5      C      -0.7151988343     1.1667062145    -0.1501464294
    6      N       0.6784239362     1.4387843657    -0.1198135413
    7      H       2.2796806844    -0.2765765260     0.4267528756
    8      H       0.6275758599    -2.7284552550     0.9273115106
    9      H      -1.7711026419    -1.7739195653     1.2973987706
   10      H      -2.5121911216     0.2424227112     0.2646041912
   11      H      -1.2632668541     2.0426333613    -0.4944351930
   12      C       1.5034656264     1.0245418155    -1.2994760523
   13      H       1.7170898977     1.3966415278    -2.2867632908
 ----------------------------------------------------------------

    2    -286.7448367099      1.58E-09 Convergence criterion met
 Total energy in the final basis set = -286.74483671

                    Orbital Energies (a.u.)
 --------------------------------------------------------------

 Alpha MOs
 -- Occupied --
-14.365 -10.251 -10.247 -10.219 -10.213 -10.208 -10.194  -0.982
 -0.811  -0.761  -0.684  -0.604  -0.600  -0.543  -0.497  -0.494
 -0.446  -0.426  -0.389  -0.380  -0.336  -0.317  -0.252  -0.229
 -0.206

 Beta MOs
 -- Occupied --
-14.365 -10.249 -10.248 -10.219 -10.209 -10.199 -10.193  -0.981
 -0.807  -0.753  -0.676  -0.601  -0.590  -0.538  -0.491  -0.486
 -0.442  -0.416  -0.386  -0.378  -0.333  -0.314  -0.239  -0.205

          Ground-State Mulliken Net Atomic Charges

     Atom                 Charge (a.u.)    Spin (a.u.)
  --------------------------------------------------------
      1 C                    -0.216137      -0.151471
      2 C                    -0.239011       1.050208
      3 C                    -0.160926      -0.209381
      4 C                     0.013405       0.063601
      5 C                    -0.168771      -0.047344
      6 N                    -0.144598       0.009261
      7 H                     0.173921       0.005268
      8 H                     0.146724       0.009388
      9 H                     0.138261       0.077190
     10 H                     0.119634      -0.000630
     11 H                     0.125108       0.003493
     12 C                     0.051456       0.198175
     13 H                     0.160935      -0.007759
  --------------------------------------------------------
  Sum of atomic charges =     0.000000

                    Cartesian Multipole Moments
 -----------------------------------------------------------------
    Charge (ESU x 10^10)
                -0.0000
    Dipole Moment (Debye)
         X       0.4782      Y      -0.9851      Z      -0.9457
       Tot       1.4469
    Quadrupole Moments (Debye-Ang)
        XX     -36.9912     XY      -1.7984     YY     -42.4719
        XZ      -2.0775     YZ      -5.8524     ZZ     -40.5136

 Frequency:      -165.30                  67.46                 136.94
 Force Cnst:      0.0613                 0.0078                 0.0425
 Red. Mass:       3.8085                 2.9186                 3.8508
 IR Intens:        2.715                  6.652                  7.343
 Frequency:       256.59                 314.94                 455.66
 Force Cnst:      0.1280                 0.1671                 0.2659
 Red. Mass:       3.2998                 2.8601                 2.1733
 IR Intens:        6.353                  3.153                 35.005
 Frequency:       478.16                 506.41                 554.32
 Force Cnst:      0.2830                 0.3716                 0.3022
 Red. Mass:       2.1006                 2.4591                 1.6692
 IR Intens:       52.778                 19.467                 20.466
 Frequency:       640.77                 705.78                 749.74
 Force Cnst:      0.3619                 0.5324                 0.6512
 Red. Mass:       1.4958                 1.8140                 1.9662
 IR Intens:       42.039                 14.286                 27.398
 Frequency:       783.01                 812.38                 850.50
 Force Cnst:      0.6678                 0.8647                 0.7032
 Red. Mass:       1.8487                 2.2237                 1.6500
 IR Intens:       15.812                  9.573                  4.619
 Frequency:       907.87                 956.90                 966.19
 Force Cnst:      1.1324                 1.0262                 0.7914
 Red. Mass:       2.3319                 1.9022                 1.4390
 IR Intens:        3.207                 15.354                  1.976
 Frequency:       971.30                1021.67                1144.88
 Force Cnst:      0.7237                 0.9546                 2.3212
 Red. Mass:       1.3019                 1.5523                 3.0057
 IR Intens:       10.232                  5.756                 18.491
 Frequency:      1274.82                1314.69                1433.57
 Force Cnst:      1.2040                 1.2614                 1.6915
 Red. Mass:       1.2574                 1.2387                 1.3970
 IR Intens:       14.643                 14.850                  8.169
 Frequency:      1636.39                1674.12                1725.98
 Force Cnst:     13.7957                 8.6869                 8.8570
 Red. Mass:       8.7443                 5.2606                 5.0462
 IR Intens:       39.413                 26.450                  7.049
 Frequency:      3031.31                3152.53                3176.10
 Force Cnst:      5.8532                 6.3503                 6.4947
 Red. Mass:       1.0811                 1.0845                 1.0928
 IR Intens:       22.831                  3.768                 29.152
 Frequency:      3247.67                3310.57                3376.05
 Force Cnst:      6.8438                 7.0356                 7.6624
 Red. Mass:       1.1013                 1.0895                 1.1410
 IR Intens:        0.455                 20.619                  9.850

 STANDARD THERMODYNAMIC QUANTITIES AT   298.15 K  AND     1.00 ATM

   This Molecule has  1 Imaginary Frequencies
   Zero point vibrational energy:       59.521 kcal/mol

   Atom    1 Element C  Has Mass   12.00000
   Atom    2 Element C  Has Mass   12.00000
   Atom    3 Element C  Has Mass   12.00000
   Atom    4 Element C  Has Mass   12.00000
   Atom    5 Element C  Has Mass   12.00000
   Atom    6 Element N  Has Mass   14.00307
   Atom    7 Element H  Has Mass    1.00783
   Atom    8 Element H  Has Mass    1.00783
   Atom    9 Element H  Has Mass    1.00783
   Atom   10 Element H  Has Mass    1.00783
   Atom   11 Element H  Has Mass    1.00783
   Atom   12 Element C  Has Mass   12.00000
   Atom   13 Element H  Has Mass    1.00783
   Molecular Mass:    92.050050 amu
   Principal axes and moments of inertia in amu*Bohr^2:
                             1           2           3
    Eigenvalues --      371.84116   737.97361  1039.68714
          X               0.62086     0.74534     0.24291
          Y               0.66238    -0.66451     0.34596
          Z              -0.41927     0.05389     0.90626
   Rotational Symmetry Number is   1
   The Molecule is an Asymmetric Top
   Translational Enthalpy:        0.889 kcal/mol
   Rotational Enthalpy:           0.889 kcal/mol
   Vibrational Enthalpy:         62.085 kcal/mol
   gas constant (RT):             0.592 kcal/mol
   Translational Entropy:        39.471  cal/mol.K
   Rotational Entropy:           27.147  cal/mol.K
   Vibrational Entropy:          14.974  cal/mol.K

   Total Enthalpy:               64.455 kcal/mol
   Total Entropy:                81.593  cal/mol.K

 Total job time:  531.36s(wall), 519.88s(cpu)
        *  Thank you very much for using Q-Chem.  Have a nice day.  *
