 Q-Chem 5.0, Q-Chem, Inc., Pleasanton, CA (2017)
 Q-Chem 5.0.2 for Intel X86 EM64T Linux

User input:
--------------------------------------------------------------
$molecule
0 2
C        1.6832658595    0.3176809945   -0.2489805359
C        0.2092045660   -1.7563746958    0.7023794991
C       -0.9904235340   -1.2067822155    0.7570690417
C       -1.4241075891    0.1123851253    0.2841811106
C       -0.7043447129    1.1738923450   -0.1303636648
N        0.6891936116    1.4490744089   -0.1097457494
H        2.2777721939   -0.2950180758    0.4015778029
H        0.6362327980   -2.7083892239    0.9935748133
H       -1.7984369780   -1.8125438279    1.1907189923
H       -2.5034812265    0.2487689697    0.2663900350
H       -1.2535686847    2.0559533563   -0.4596677189
C        1.4921169034    1.0196452689   -1.3082449186
H        1.6799312641    1.3804090251   -2.3056420918
$end

$rem
method                b3lyp
basis                 6-31+g(d,p)
unrestricted          true
symmetry              off
sym_ignore            true
incdft                false
incfock               0
scf_convergence       8
thresh                14
jobtype               sp
scf_guess             core
scf_guess_mix         5
scf_algorithm         diis
max_scf_cycles        100
$end

--------------------------------------------------------------

             Standard Nuclear Orientation (Angstroms)
    I     Atom           X                Y                Z
 ----------------------------------------------------------------
    1      C       1.6832658595     0.3176809945    -0.2489805359
    2      C       0.2092045660    -1.7563746958     0.7023794991
    3      C      -0.9904235340    -1.2067822155     0.7570690417
    4      C      -1.4241075891     0.1123851253     0.2841811106
    5      C      -0.7043447129     1.1738923450    -0.1303636648
    6      N       0.6891936116     1.4490744089    -0.1097457494
    7      H       2.2777721939    -0.2950180758     0.4015778029
    8      H       0.6362327980    -2.7083892239     0.9935748133
    9      H      -1.7984369780    -1.8125438279     1.1907189923
   10      H      -2.5034812265     0.2487689697     0.2663900350
   11      H      -1.2535686847     2.0559533563    -0.4596677189
   12      C       1.4921169034     1.0196452689    -1.3082449186
   13      H       1.6799312641     1.3804090251    -2.3056420918
 ----------------------------------------------------------------

   23    -286.7447874124      4.25E-09 Convergence criterion met
 Total energy in the final basis set = -286.74478741

                    Orbital Energies (a.u.)
 --------------------------------------------------------------

 Alpha MOs
 -- Occupied --
-14.365 -10.250 -10.246 -10.219 -10.214 -10.208 -10.194  -0.981
 -0.812  -0.762  -0.685  -0.604  -0.600  -0.543  -0.498  -0.494
 -0.446  -0.425  -0.389  -0.380  -0.335  -0.318  -0.252  -0.230
 -0.207

 Beta MOs
 -- Occupied --
-14.365 -10.248 -10.247 -10.219 -10.209 -10.199 -10.193  -0.980
 -0.807  -0.753  -0.677  -0.601  -0.590  -0.538  -0.492  -0.486
 -0.442  -0.415  -0.386  -0.379  -0.332  -0.314  -0.240  -0.205

          Ground-State Mulliken Net Atomic Charges

     Atom                 Charge (a.u.)    Spin (a.u.)
  --------------------------------------------------------
      1 C                    -0.205468      -0.142358
      2 C                    -0.236833       1.061514
      3 C                    -0.161585      -0.220493
      4 C                     0.022929       0.073553
      5 C                    -0.182594      -0.051836
      6 N                    -0.147161       0.006828
      7 H                     0.174525       0.004589
      8 H                     0.147228       0.009993
      9 H                     0.138070       0.078860
     10 H                     0.118996      -0.000697
     11 H                     0.125264       0.003593
     12 C                     0.045473       0.183602
     13 H                     0.161158      -0.007148
  --------------------------------------------------------
  Sum of atomic charges =     0.000000

                    Cartesian Multipole Moments
 -----------------------------------------------------------------
    Charge (ESU x 10^10)
                 0.0000
    Dipole Moment (Debye)
         X       0.3954      Y      -1.0809      Z      -1.0249
       Tot       1.5411
    Quadrupole Moments (Debye-Ang)
        XX     -37.0237     XY      -1.8669     YY     -42.4503
        XZ      -1.9974     YZ      -5.7359     ZZ     -40.6641

 Total job time:  34.63s(wall), 113.21s(cpu)
        *  Thank you very much for using Q-Chem.  Have a nice day.  *
