 Q-Chem 5.0, Q-Chem, Inc., Pleasanton, CA (2017)
 Q-Chem 5.0.2 for Intel X86 EM64T Linux

User input:
--------------------------------------------------------------
$molecule
0 2
C        1.6832658595    0.3176809945   -0.2489805359
C        0.2092045660   -1.7563746958    0.7023794991
C       -0.9904235340   -1.2067822155    0.7570690417
C       -1.4241075891    0.1123851253    0.2841811106
C       -0.7043447129    1.1738923450   -0.1303636648
N        0.6891936116    1.4490744089   -0.1097457494
H        2.2777721939   -0.2950180758    0.4015778029
H        0.6362327980   -2.7083892239    0.9935748133
H       -1.7984369780   -1.8125438279    1.1907189923
H       -2.5034812265    0.2487689697    0.2663900350
H       -1.2535686847    2.0559533563   -0.4596677189
C        1.4921169034    1.0196452689   -1.3082449186
H        1.6799312641    1.3804090251   -2.3056420918
$end

$rem
method                b3lyp
basis                 6-31g(d)
unrestricted          true
symmetry              off
sym_ignore            true
incdft                false
incfock               0
scf_convergence       8
thresh                14
jobtype               sp
scf_guess             read
scf_algorithm         diis
max_scf_cycles        100
$end

--------------------------------------------------------------

             Standard Nuclear Orientation (Angstroms)
    I     Atom           X                Y                Z
 ----------------------------------------------------------------
    1      C       1.6832658595     0.3176809945    -0.2489805359
    2      C       0.2092045660    -1.7563746958     0.7023794991
    3      C      -0.9904235340    -1.2067822155     0.7570690417
    4      C      -1.4241075891     0.1123851253     0.2841811106
    5      C      -0.7043447129     1.1738923450    -0.1303636648
    6      N       0.6891936116     1.4490744089    -0.1097457494
    7      H       2.2777721939    -0.2950180758     0.4015778029
    8      H       0.6362327980    -2.7083892239     0.9935748133
    9      H      -1.7984369780    -1.8125438279     1.1907189923
   10      H      -2.5034812265     0.2487689697     0.2663900350
   11      H      -1.2535686847     2.0559533563    -0.4596677189
   12      C       1.4921169034     1.0196452689    -1.3082449186
   13      H       1.6799312641     1.3804090251    -2.3056420918
 ----------------------------------------------------------------

    2    -286.7188296532      9.68E-09 Convergence criterion met
 Total energy in the final basis set = -286.71882965

                    Orbital Energies (a.u.)
 --------------------------------------------------------------

 Alpha MOs
 -- Occupied --
-14.349 -10.239 -10.234 -10.206 -10.201 -10.195 -10.181  -0.967
 -0.798  -0.749  -0.672  -0.595  -0.590  -0.533  -0.488  -0.484
 -0.434  -0.414  -0.378  -0.368  -0.323  -0.305  -0.239  -0.218
 -0.193

 Beta MOs
 -- Occupied --
-14.349 -10.237 -10.235 -10.206 -10.196 -10.186 -10.180  -0.966
 -0.794  -0.741  -0.664  -0.592  -0.580  -0.528  -0.481  -0.477
 -0.430  -0.404  -0.374  -0.367  -0.321  -0.302  -0.227  -0.191

          Ground-State Mulliken Net Atomic Charges

     Atom                 Charge (a.u.)    Spin (a.u.)
  --------------------------------------------------------
      1 C                    -0.032387      -0.113430
      2 C                    -0.229145       0.997678
      3 C                    -0.119981      -0.162863
      4 C                    -0.116815       0.064633
      5 C                     0.004273      -0.053029
      6 N                    -0.401083       0.003082
      7 H                     0.186655       0.005741
      8 H                     0.155379       0.005929
      9 H                     0.141068       0.080505
     10 H                     0.123021      -0.000367
     11 H                     0.135729       0.003779
     12 C                    -0.019335       0.176202
     13 H                     0.172622      -0.007861
  --------------------------------------------------------
  Sum of atomic charges =     0.000000

                    Cartesian Multipole Moments
 -----------------------------------------------------------------
    Charge (ESU x 10^10)
                 0.0000
    Dipole Moment (Debye)
         X       0.4360      Y      -1.0822      Z      -1.0177
       Tot       1.5482
    Quadrupole Moments (Debye-Ang)
        XX     -35.8061     XY      -1.7235     YY     -40.7084
        XZ      -1.8835     YZ      -5.1969     ZZ     -38.8917

 Total job time:  3.75s(wall), 6.62s(cpu)
        *  Thank you very much for using Q-Chem.  Have a nice day.  *
