 Q-Chem 5.0, Q-Chem, Inc., Pleasanton, CA (2017)
 Q-Chem 5.0.2 for Intel X86 EM64T Linux

User input:
--------------------------------------------------------------
$molecule
0 2
C        1.6832658595    0.3176809945   -0.2489805359
C        0.2092045660   -1.7563746958    0.7023794991
C       -0.9904235340   -1.2067822155    0.7570690417
C       -1.4241075891    0.1123851253    0.2841811106
C       -0.7043447129    1.1738923450   -0.1303636648
N        0.6891936116    1.4490744089   -0.1097457494
H        2.2777721939   -0.2950180758    0.4015778029
H        0.6362327980   -2.7083892239    0.9935748133
H       -1.7984369780   -1.8125438279    1.1907189923
H       -2.5034812265    0.2487689697    0.2663900350
H       -1.2535686847    2.0559533563   -0.4596677189
C        1.4921169034    1.0196452689   -1.3082449186
H        1.6799312641    1.3804090251   -2.3056420918
$end

$rem
method                b3lyp
basis                 6-31+g(d,p)
unrestricted          true
symmetry              off
sym_ignore            true
incdft                false
incfock               0
scf_convergence       8
thresh                14
jobtype               freq
scf_guess             read
scf_algorithm         diis
max_scf_cycles        100
$end

--------------------------------------------------------------

             Standard Nuclear Orientation (Angstroms)
    I     Atom           X                Y                Z
 ----------------------------------------------------------------
    1      C       1.6832658595     0.3176809945    -0.2489805359
    2      C       0.2092045660    -1.7563746958     0.7023794991
    3      C      -0.9904235340    -1.2067822155     0.7570690417
    4      C      -1.4241075891     0.1123851253     0.2841811106
    5      C      -0.7043447129     1.1738923450    -0.1303636648
    6      N       0.6891936116     1.4490744089    -0.1097457494
    7      H       2.2777721939    -0.2950180758     0.4015778029
    8      H       0.6362327980    -2.7083892239     0.9935748133
    9      H      -1.7984369780    -1.8125438279     1.1907189923
   10      H      -2.5034812265     0.2487689697     0.2663900350
   11      H      -1.2535686847     2.0559533563    -0.4596677189
   12      C       1.4921169034     1.0196452689    -1.3082449186
   13      H       1.6799312641     1.3804090251    -2.3056420918
 ----------------------------------------------------------------

    2    -286.7447874125      3.01E-09 Convergence criterion met
 Total energy in the final basis set = -286.74478741

                    Orbital Energies (a.u.)
 --------------------------------------------------------------

 Alpha MOs
 -- Occupied --
-14.365 -10.250 -10.246 -10.219 -10.214 -10.208 -10.194  -0.981
 -0.812  -0.762  -0.685  -0.604  -0.600  -0.543  -0.498  -0.494
 -0.446  -0.425  -0.389  -0.380  -0.335  -0.318  -0.252  -0.230
 -0.207

 Beta MOs
 -- Occupied --
-14.365 -10.248 -10.247 -10.219 -10.209 -10.199 -10.193  -0.980
 -0.807  -0.753  -0.677  -0.601  -0.590  -0.538  -0.492  -0.486
 -0.442  -0.415  -0.386  -0.379  -0.332  -0.314  -0.240  -0.205

          Ground-State Mulliken Net Atomic Charges

     Atom                 Charge (a.u.)    Spin (a.u.)
  --------------------------------------------------------
      1 C                    -0.205468      -0.142338
      2 C                    -0.236833       1.061503
      3 C                    -0.161585      -0.220482
      4 C                     0.022929       0.073543
      5 C                    -0.182594      -0.051825
      6 N                    -0.147161       0.006826
      7 H                     0.174525       0.004588
      8 H                     0.147228       0.009994
      9 H                     0.138070       0.078860
     10 H                     0.118996      -0.000696
     11 H                     0.125264       0.003592
     12 C                     0.045472       0.183582
     13 H                     0.161158      -0.007147
  --------------------------------------------------------
  Sum of atomic charges =     0.000000

                    Cartesian Multipole Moments
 -----------------------------------------------------------------
    Charge (ESU x 10^10)
                 0.0000
    Dipole Moment (Debye)
         X       0.3954      Y      -1.0809      Z      -1.0249
       Tot       1.5411
    Quadrupole Moments (Debye-Ang)
        XX     -37.0237     XY      -1.8669     YY     -42.4503
        XZ      -1.9974     YZ      -5.7359     ZZ     -40.6641

 Frequency:      -161.23                  44.93                 136.05
 Force Cnst:      0.0543                 0.0034                 0.0450
 Red. Mass:       3.5478                 2.8750                 4.1239
 IR Intens:        3.508                  6.318                  5.740
 Frequency:       260.82                 309.74                 450.59
 Force Cnst:      0.1313                 0.1688                 0.2656
 Red. Mass:       3.2754                 2.9864                 2.2201
 IR Intens:        6.018                  2.140                 32.525
 Frequency:       484.36                 511.29                 555.38
 Force Cnst:      0.2859                 0.4638                 0.2806
 Red. Mass:       2.0687                 3.0111                 1.5443
 IR Intens:       53.056                 13.625                 29.911
 Frequency:       640.63                 706.54                 751.36
 Force Cnst:      0.3575                 0.5048                 0.6589
 Red. Mass:       1.4787                 1.7162                 1.9809
 IR Intens:       43.417                 11.691                 25.789
 Frequency:       786.66                 815.73                 853.20
 Force Cnst:      0.6943                 0.8953                 0.7034
 Red. Mass:       1.9044                 2.2837                 1.6399
 IR Intens:       13.341                  8.272                  5.002
 Frequency:       904.91                 962.67                 969.89
 Force Cnst:      1.1371                 1.0389                 0.7718
 Red. Mass:       2.3569                 1.9027                 1.3925
 IR Intens:        4.668                 14.916                  3.222
 Frequency:       973.86                1022.00                1139.45
 Force Cnst:      0.7348                 0.9494                 2.3800
 Red. Mass:       1.3151                 1.5427                 3.1112
 IR Intens:        8.513                  4.243                 20.504
 Frequency:      1279.26                1319.77                1437.47
 Force Cnst:      1.2073                 1.2485                 1.6930
 Red. Mass:       1.2522                 1.2166                 1.3906
 IR Intens:       14.277                 14.543                  8.106
 Frequency:      1642.79                1681.49                1743.39
 Force Cnst:     13.9650                 8.8467                 8.9484
 Red. Mass:       8.7827                 5.3106                 4.9970
 IR Intens:       38.931                 26.671                  6.891
 Frequency:      3026.25                3144.35                3170.54
 Force Cnst:      5.8332                 6.3191                 6.4706
 Red. Mass:       1.0810                 1.0848                 1.0925
 IR Intens:       21.562                  4.872                 28.704
 Frequency:      3241.07                3304.35                3370.80
 Force Cnst:      6.8161                 7.0069                 7.6585
 Red. Mass:       1.1013                 1.0892                 1.1440
 IR Intens:        0.534                 20.970                  9.155

 STANDARD THERMODYNAMIC QUANTITIES AT   298.15 K  AND     1.00 ATM

   This Molecule has  1 Imaginary Frequencies
   Zero point vibrational energy:       59.530 kcal/mol

   Atom    1 Element C  Has Mass   12.00000
   Atom    2 Element C  Has Mass   12.00000
   Atom    3 Element C  Has Mass   12.00000
   Atom    4 Element C  Has Mass   12.00000
   Atom    5 Element C  Has Mass   12.00000
   Atom    6 Element N  Has Mass   14.00307
   Atom    7 Element H  Has Mass    1.00783
   Atom    8 Element H  Has Mass    1.00783
   Atom    9 Element H  Has Mass    1.00783
   Atom   10 Element H  Has Mass    1.00783
   Atom   11 Element H  Has Mass    1.00783
   Atom   12 Element C  Has Mass   12.00000
   Atom   13 Element H  Has Mass    1.00783
   Molecular Mass:    92.050050 amu
   Principal axes and moments of inertia in amu*Bohr^2:
                             1           2           3
    Eigenvalues --      372.04014   737.40694  1037.09949
          X               0.61668     0.74924     0.24154
          Y               0.66420    -0.65991     0.35121
          Z              -0.42253     0.05615     0.90461
   Rotational Symmetry Number is   1
   The Molecule is an Asymmetric Top
   Translational Enthalpy:        0.889 kcal/mol
   Rotational Enthalpy:           0.889 kcal/mol
   Vibrational Enthalpy:         62.119 kcal/mol
   gas constant (RT):             0.592 kcal/mol
   Translational Entropy:        39.471  cal/mol.K
   Rotational Entropy:           27.144  cal/mol.K
   Vibrational Entropy:          15.759  cal/mol.K

   Total Enthalpy:               64.489 kcal/mol
   Total Entropy:                82.374  cal/mol.K

 Total job time:  541.24s(wall), 520.78s(cpu)
        *  Thank you very much for using Q-Chem.  Have a nice day.  *
