 Q-Chem 5.0, Q-Chem, Inc., Pleasanton, CA (2017)
 Q-Chem 5.0.2 for Intel X86 EM64T Linux

User input:
--------------------------------------------------------------
$molecule
0 2
C        1.6784805107    0.2140532648   -0.3008949031
C        0.1878420000   -1.6661265785    0.8108548320
C       -1.0540769106   -1.2170487720    0.7434216533
C       -1.4723255795    0.1088044655    0.2875384414
C       -0.6951710806    1.1405477703   -0.1017315933
N        0.7158140241    1.3471005425   -0.0612779140
H        2.4857990085   -0.2431099919    0.2392216547
H        0.6637848717   -2.5844163971    1.1403042137
H       -1.8650231318   -1.9004598004    1.0186716501
H       -2.5470783538    0.2789986927    0.2677175729
H       -1.1826066173    2.0573107811   -0.4358191607
C        1.3975174313    0.9659845406   -1.3326389413
H        1.6803982983    1.4770629373   -2.2421208902
$end

$rem
method                b3lyp
basis                 6-31g(d)
unrestricted          true
symmetry              off
sym_ignore            true
incdft                false
incfock               0
scf_convergence       8
thresh                14
jobtype               freq
scf_guess             read
scf_algorithm         diis
max_scf_cycles        100
$end

--------------------------------------------------------------

             Standard Nuclear Orientation (Angstroms)
    I     Atom           X                Y                Z
 ----------------------------------------------------------------
    1      C       1.6784805107     0.2140532648    -0.3008949031
    2      C       0.1878420000    -1.6661265785     0.8108548320
    3      C      -1.0540769106    -1.2170487720     0.7434216533
    4      C      -1.4723255795     0.1088044655     0.2875384414
    5      C      -0.6951710806     1.1405477703    -0.1017315933
    6      N       0.7158140241     1.3471005425    -0.0612779140
    7      H       2.4857990085    -0.2431099919     0.2392216547
    8      H       0.6637848717    -2.5844163971     1.1403042137
    9      H      -1.8650231318    -1.9004598004     1.0186716501
   10      H      -2.5470783538     0.2789986927     0.2677175729
   11      H      -1.1826066173     2.0573107811    -0.4358191607
   12      C       1.3975174313     0.9659845406    -1.3326389413
   13      H       1.6803982983     1.4770629373    -2.2421208902
 ----------------------------------------------------------------

    2    -286.7152765550      3.33E-09 Convergence criterion met
 Total energy in the final basis set = -286.71527656

                    Orbital Energies (a.u.)
 --------------------------------------------------------------

 Alpha MOs
 -- Occupied --
-14.351 -10.238 -10.236 -10.207 -10.201 -10.193 -10.181  -0.970
 -0.799  -0.745  -0.670  -0.592  -0.588  -0.529  -0.489  -0.482
 -0.435  -0.412  -0.377  -0.365  -0.329  -0.304  -0.237  -0.214
 -0.195

 Beta MOs
 -- Occupied --
-14.351 -10.239 -10.234 -10.208 -10.195 -10.187 -10.180  -0.969
 -0.795  -0.738  -0.662  -0.588  -0.578  -0.524  -0.483  -0.475
 -0.430  -0.403  -0.373  -0.363  -0.325  -0.299  -0.226  -0.191

          Ground-State Mulliken Net Atomic Charges

     Atom                 Charge (a.u.)    Spin (a.u.)
  --------------------------------------------------------
      1 C                    -0.050649      -0.215690
      2 C                    -0.212641       0.961151
      3 C                    -0.122251      -0.159738
      4 C                    -0.111390       0.061411
      5 C                     0.004407      -0.051893
      6 N                    -0.391034       0.010791
      7 H                     0.183210       0.011598
      8 H                     0.153813       0.005961
      9 H                     0.141050       0.075521
     10 H                     0.123774       0.000652
     11 H                     0.136010       0.004506
     12 C                    -0.028762       0.307481
     13 H                     0.174462      -0.011750
  --------------------------------------------------------
  Sum of atomic charges =    -0.000000

                    Cartesian Multipole Moments
 -----------------------------------------------------------------
    Charge (ESU x 10^10)
                 0.0000
    Dipole Moment (Debye)
         X       0.5126      Y      -0.8443      Z      -1.0571
       Tot       1.4468
    Quadrupole Moments (Debye-Ang)
        XX     -34.9011     XY      -1.2350     YY     -39.8658
        XZ      -1.7777     YZ      -5.1599     ZZ     -39.8205

 Frequency:      -343.79                 101.25                 165.90
 Force Cnst:      0.2547                 0.0186                 0.0577
 Red. Mass:       3.6583                 3.0790                 3.5565
 IR Intens:       10.181                  6.693                  2.260
 Frequency:       286.89                 333.44                 427.87
 Force Cnst:      0.1394                 0.1775                 0.2638
 Red. Mass:       2.8746                 2.7098                 2.4457
 IR Intens:        3.130                  2.137                 49.825
 Frequency:       445.74                 486.89                 508.87
 Force Cnst:      0.2077                 0.2578                 0.4832
 Red. Mass:       1.7742                 1.8460                 3.1674
 IR Intens:       34.352                  5.313                 24.473
 Frequency:       645.05                 718.24                 765.91
 Force Cnst:      0.3417                 0.6270                 0.6751
 Red. Mass:       1.3937                 2.0629                 1.9533
 IR Intens:       32.060                 19.078                 29.575
 Frequency:       796.34                 827.36                 846.29
 Force Cnst:      0.6569                 0.9022                 0.6758
 Red. Mass:       1.7583                 2.2370                 1.6015
 IR Intens:        6.890                  4.658                  4.384
 Frequency:       920.90                 961.66                 969.54
 Force Cnst:      1.1836                 0.7521                 0.9652
 Red. Mass:       2.3687                 1.3802                 1.7427
 IR Intens:        5.925                  8.016                  3.843
 Frequency:       975.46                1038.99                1135.24
 Force Cnst:      0.7954                 1.0579                 1.9936
 Red. Mass:       1.4187                 1.6633                 2.6255
 IR Intens:       14.952                  7.796                 15.058
 Frequency:      1280.31                1317.46                1448.73
 Force Cnst:      1.2476                 1.2871                 1.7222
 Red. Mass:       1.2918                 1.2586                 1.3927
 IR Intens:       18.381                 13.485                  6.123
 Frequency:      1609.08                1635.10                1688.39
 Force Cnst:      7.8755                13.3293                 8.7422
 Red. Mass:       5.1626                 8.4619                 5.2051
 IR Intens:        3.349                 21.170                 20.616
 Frequency:      3069.04                3147.12                3176.16
 Force Cnst:      6.0032                 6.3340                 6.4948
 Red. Mass:       1.0817                 1.0854                 1.0927
 IR Intens:       24.699                  8.697                 33.722
 Frequency:      3227.41                3280.90                3361.53
 Force Cnst:      6.7621                 6.9570                 7.4303
 Red. Mass:       1.1019                 1.0970                 1.1161
 IR Intens:        1.016                  5.278                  5.761

 STANDARD THERMODYNAMIC QUANTITIES AT   298.15 K  AND     1.00 ATM

   This Molecule has  1 Imaginary Frequencies
   Zero point vibrational energy:       59.469 kcal/mol

   Atom    1 Element C  Has Mass   12.00000
   Atom    2 Element C  Has Mass   12.00000
   Atom    3 Element C  Has Mass   12.00000
   Atom    4 Element C  Has Mass   12.00000
   Atom    5 Element C  Has Mass   12.00000
   Atom    6 Element N  Has Mass   14.00307
   Atom    7 Element H  Has Mass    1.00783
   Atom    8 Element H  Has Mass    1.00783
   Atom    9 Element H  Has Mass    1.00783
   Atom   10 Element H  Has Mass    1.00783
   Atom   11 Element H  Has Mass    1.00783
   Atom   12 Element C  Has Mass   12.00000
   Atom   13 Element H  Has Mass    1.00783
   Molecular Mass:    92.050050 amu
   Principal axes and moments of inertia in amu*Bohr^2:
                             1           2           3
    Eigenvalues --      366.91462   725.22688  1014.99336
          X               0.65045     0.72237     0.23475
          Y               0.62320    -0.68424     0.37874
          Z              -0.43421     0.10005     0.89524
   Rotational Symmetry Number is   1
   The Molecule is an Asymmetric Top
   Translational Enthalpy:        0.889 kcal/mol
   Rotational Enthalpy:           0.889 kcal/mol
   Vibrational Enthalpy:         61.966 kcal/mol
   gas constant (RT):             0.592 kcal/mol
   Translational Entropy:        39.471  cal/mol.K
   Rotational Entropy:           27.093  cal/mol.K
   Vibrational Entropy:          13.789  cal/mol.K

   Total Enthalpy:               64.336 kcal/mol
   Total Entropy:                80.352  cal/mol.K

 Total job time:  253.88s(wall), 245.82s(cpu)
        *  Thank you very much for using Q-Chem.  Have a nice day.  *
