 Q-Chem 5.0, Q-Chem, Inc., Pleasanton, CA (2017)
 Q-Chem 5.0.2 for Intel X86 EM64T Linux

User input:
--------------------------------------------------------------
$molecule
0 2
C        1.6832658595    0.3176809945   -0.2489805359
C        0.2092045660   -1.7563746958    0.7023794991
C       -0.9904235340   -1.2067822155    0.7570690417
C       -1.4241075891    0.1123851253    0.2841811106
C       -0.7043447129    1.1738923450   -0.1303636648
N        0.6891936116    1.4490744089   -0.1097457494
H        2.2777721939   -0.2950180758    0.4015778029
H        0.6362327980   -2.7083892239    0.9935748133
H       -1.7984369780   -1.8125438279    1.1907189923
H       -2.5034812265    0.2487689697    0.2663900350
H       -1.2535686847    2.0559533563   -0.4596677189
C        1.4921169034    1.0196452689   -1.3082449186
H        1.6799312641    1.3804090251   -2.3056420918
$end

$rem
method                b3lyp
basis                 6-31+g(d,p)
unrestricted          true
symmetry              off
sym_ignore            true
incdft                false
incfock               0
scf_convergence       8
thresh                14
jobtype               ts
scf_guess             read
scf_algorithm         diis
max_scf_cycles        100
geom_opt_max_cycles   500
geom_opt_dmax         100
geom_opt_tol_gradient 10
geom_opt_hessian      read
$end

--------------------------------------------------------------

    2    -286.7447874125      1.12E-09 Convergence criterion met
 Total energy in the final basis set = -286.74478741
   15    -286.7448234020      4.92E-09 Convergence criterion met
 Total energy in the final basis set = -286.74482340
   14    -286.7448374489      9.87E-09 Convergence criterion met
 Total energy in the final basis set = -286.74483745
   14    -286.7448362533      6.62E-09 Convergence criterion met
 Total energy in the final basis set = -286.74483625
   14    -286.7448359114      8.20E-09 Convergence criterion met
 Total energy in the final basis set = -286.74483591
   13    -286.7448367089      6.72E-09 Convergence criterion met
 Total energy in the final basis set = -286.74483671

             Standard Nuclear Orientation (Angstroms)
    I     Atom           X                Y                Z
 ----------------------------------------------------------------
    1      C       1.6820569399     0.3169688837    -0.2373610110
    2      C       0.1907787383    -1.7788354125     0.6453504685
    3      C      -0.9909686898    -1.2008274153     0.7779623119
    4      C      -1.4329890698     0.1086167491     0.2818620048
    5      C      -0.7151988343     1.1667062145    -0.1501464294
    6      N       0.6784239362     1.4387843657    -0.1198135413
    7      H       2.2796806844    -0.2765765260     0.4267528756
    8      H       0.6275758599    -2.7284552550     0.9273115106
    9      H      -1.7711026419    -1.7739195653     1.2973987706
   10      H      -2.5121911216     0.2424227112     0.2646041912
   11      H      -1.2632668541     2.0426333613    -0.4944351930
   12      C       1.5034656264     1.0245418155    -1.2994760523
   13      H       1.7170898977     1.3966415278    -2.2867632908
 ----------------------------------------------------------------

    9    -286.7448367099      7.16E-09 Convergence criterion met
 Total energy in the final basis set = -286.74483671
 Final energy is   -286.744836709882
 **  OPTIMIZATION CONVERGED  **

                    Orbital Energies (a.u.)
 --------------------------------------------------------------

 Alpha MOs
 -- Occupied --
-14.365 -10.251 -10.247 -10.219 -10.213 -10.208 -10.194  -0.982
 -0.811  -0.761  -0.684  -0.604  -0.600  -0.543  -0.497  -0.494
 -0.446  -0.426  -0.389  -0.380  -0.336  -0.317  -0.252  -0.229
 -0.206

 Beta MOs
 -- Occupied --
-14.365 -10.249 -10.248 -10.219 -10.209 -10.199 -10.193  -0.981
 -0.807  -0.753  -0.676  -0.601  -0.590  -0.538  -0.491  -0.486
 -0.442  -0.416  -0.386  -0.378  -0.333  -0.314  -0.239  -0.205

          Ground-State Mulliken Net Atomic Charges

     Atom                 Charge (a.u.)    Spin (a.u.)
  --------------------------------------------------------
      1 C                    -0.216137      -0.151484
      2 C                    -0.239012       1.050205
      3 C                    -0.160926      -0.209378
      4 C                     0.013405       0.063599
      5 C                    -0.168771      -0.047343
      6 N                    -0.144598       0.009262
      7 H                     0.173921       0.005269
      8 H                     0.146724       0.009388
      9 H                     0.138261       0.077190
     10 H                     0.119634      -0.000630
     11 H                     0.125108       0.003493
     12 C                     0.051456       0.198190
     13 H                     0.160935      -0.007760
  --------------------------------------------------------
  Sum of atomic charges =    -0.000000

                    Cartesian Multipole Moments
 -----------------------------------------------------------------
    Charge (ESU x 10^10)
                -0.0000
    Dipole Moment (Debye)
         X       0.4782      Y      -0.9851      Z      -0.9457
       Tot       1.4469
    Quadrupole Moments (Debye-Ang)
        XX     -36.9912     XY      -1.7984     YY     -42.4719
        XZ      -2.0775     YZ      -5.8524     ZZ     -40.5136

 Total job time:  155.67s(wall), 510.14s(cpu)
        *  Thank you very much for using Q-Chem.  Have a nice day.  *
