 Q-Chem 5.0, Q-Chem, Inc., Pleasanton, CA (2017)
 Q-Chem 5.0.2 for Intel X86 EM64T Linux

User input:
--------------------------------------------------------------
$molecule
0 2
C        1.6784805107    0.2140532648   -0.3008949031
C        0.1878420000   -1.6661265785    0.8108548320
C       -1.0540769106   -1.2170487720    0.7434216533
C       -1.4723255795    0.1088044655    0.2875384414
C       -0.6951710806    1.1405477703   -0.1017315933
N        0.7158140241    1.3471005425   -0.0612779140
H        2.4857990085   -0.2431099919    0.2392216547
H        0.6637848717   -2.5844163971    1.1403042137
H       -1.8650231318   -1.9004598004    1.0186716501
H       -2.5470783538    0.2789986927    0.2677175729
H       -1.1826066173    2.0573107811   -0.4358191607
C        1.3975174313    0.9659845406   -1.3326389413
H        1.6803982983    1.4770629373   -2.2421208902
$end

$rem
method                b3lyp
basis                 6-31g(d)
unrestricted          true
symmetry              off
sym_ignore            true
incdft                false
incfock               0
scf_convergence       8
thresh                14
jobtype               sp
scf_guess             core
scf_guess_mix         5
scf_algorithm         diis
max_scf_cycles        100
$end

--------------------------------------------------------------

             Standard Nuclear Orientation (Angstroms)
    I     Atom           X                Y                Z
 ----------------------------------------------------------------
    1      C       1.6784805107     0.2140532648    -0.3008949031
    2      C       0.1878420000    -1.6661265785     0.8108548320
    3      C      -1.0540769106    -1.2170487720     0.7434216533
    4      C      -1.4723255795     0.1088044655     0.2875384414
    5      C      -0.6951710806     1.1405477703    -0.1017315933
    6      N       0.7158140241     1.3471005425    -0.0612779140
    7      H       2.4857990085    -0.2431099919     0.2392216547
    8      H       0.6637848717    -2.5844163971     1.1403042137
    9      H      -1.8650231318    -1.9004598004     1.0186716501
   10      H      -2.5470783538     0.2789986927     0.2677175729
   11      H      -1.1826066173     2.0573107811    -0.4358191607
   12      C       1.3975174313     0.9659845406    -1.3326389413
   13      H       1.6803982983     1.4770629373    -2.2421208902
 ----------------------------------------------------------------

   25    -286.7152765550      4.79E-09 Convergence criterion met
 Total energy in the final basis set = -286.71527655

                    Orbital Energies (a.u.)
 --------------------------------------------------------------

 Alpha MOs
 -- Occupied --
-14.351 -10.238 -10.236 -10.207 -10.201 -10.193 -10.181  -0.970
 -0.799  -0.745  -0.670  -0.592  -0.588  -0.529  -0.489  -0.482
 -0.435  -0.412  -0.377  -0.365  -0.329  -0.304  -0.237  -0.214
 -0.195

 Beta MOs
 -- Occupied --
-14.351 -10.239 -10.234 -10.208 -10.195 -10.187 -10.180  -0.969
 -0.795  -0.738  -0.662  -0.588  -0.578  -0.524  -0.483  -0.475
 -0.430  -0.403  -0.373  -0.363  -0.325  -0.299  -0.226  -0.191

          Ground-State Mulliken Net Atomic Charges

     Atom                 Charge (a.u.)    Spin (a.u.)
  --------------------------------------------------------
      1 C                    -0.050649      -0.215701
      2 C                    -0.212641       0.961148
      3 C                    -0.122251      -0.159736
      4 C                    -0.111389       0.061408
      5 C                     0.004407      -0.051890
      6 N                    -0.391034       0.010791
      7 H                     0.183210       0.011598
      8 H                     0.153813       0.005961
      9 H                     0.141050       0.075521
     10 H                     0.123774       0.000652
     11 H                     0.136010       0.004505
     12 C                    -0.028762       0.307492
     13 H                     0.174462      -0.011751
  --------------------------------------------------------
  Sum of atomic charges =     0.000000

                    Cartesian Multipole Moments
 -----------------------------------------------------------------
    Charge (ESU x 10^10)
                 0.0000
    Dipole Moment (Debye)
         X       0.5126      Y      -0.8443      Z      -1.0571
       Tot       1.4468
    Quadrupole Moments (Debye-Ang)
        XX     -34.9011     XY      -1.2350     YY     -39.8658
        XZ      -1.7777     YZ      -5.1599     ZZ     -39.8205

 Total job time:  19.40s(wall), 61.78s(cpu)
        *  Thank you very much for using Q-Chem.  Have a nice day.  *
