 Q-Chem 5.0, Q-Chem, Inc., Pleasanton, CA (2017)
 Q-Chem 5.0.2 for Intel X86 EM64T Linux

User input:
--------------------------------------------------------------
$molecule
0 2
C        0.6574972011    0.0208007156    0.2806613023
C        1.0071821366   -1.2174319305   -0.5244428927
C        0.3032007222   -2.3236513888   -0.5672611172
C       -1.3309762843    1.1511831546    0.5068860752
C       -0.4003905167    1.8307396575   -0.4063839677
N        0.7265163540    1.2237956417   -0.5684761525
H        1.4340666131    0.1490763331    1.0553231697
H        1.9346521411   -1.1231490394   -1.1013215857
H        0.3765221234   -3.2886226148   -1.0528583827
H       -2.3239256500    1.4962469481    0.7724061532
H       -0.6090046255    2.7687817943   -0.9196545436
C       -0.7038731787    0.0365166868    0.9236013208
H       -1.0714670365   -0.7242859583    1.6015206208
$end

$rem
method                b3lyp
basis                 6-31g(d)
unrestricted          true
symmetry              off
sym_ignore            true
incdft                false
incfock               0
scf_convergence       8
thresh                14
jobtype               opt
scf_guess             read
scf_algorithm         diis
max_scf_cycles        100
geom_opt_tol_gradient 600
geom_opt_tol_displacement 2400
geom_opt_tol_energy   200
geom_opt_max_cycles   100
$end

--------------------------------------------------------------

    2    -286.8505297448      1.84E-09 Convergence criterion met
 Total energy in the final basis set = -286.85052974

             Standard Nuclear Orientation (Angstroms)
    I     Atom           X                Y                Z
 ----------------------------------------------------------------
    1      C       0.6590593216     0.0213913388     0.2812688870
    2      C       1.0079161056    -1.2168680876    -0.5240647908
    3      C       0.3020906639    -2.3220283882    -0.5670195386
    4      C      -1.3312474786     1.1499733072     0.5063610221
    5      C      -0.4003897562     1.8299354426    -0.4059732159
    6      N       0.7268789394     1.2243631865    -0.5685586040
    7      H       1.4355940693     0.1495073070     1.0559905489
    8      H       1.9349456498    -1.1235230096    -1.1018935126
    9      H       0.3733728619    -3.2871780811    -1.0525631550
   10      H      -2.3248727983     1.4947542948     0.7698316120
   11      H      -0.6095765088     2.7679495977    -0.9191443429
   12      C      -0.7028360818     0.0365358799     0.9243495726
   13      H      -1.0709349881    -0.7248127881     1.6014155172
 ----------------------------------------------------------------

   11    -286.8505314165      3.69E-09 Convergence criterion met
 Total energy in the final basis set = -286.85053142
 Final energy is   -286.850531416495
 **  OPTIMIZATION CONVERGED  **

                    Orbital Energies (a.u.)
 --------------------------------------------------------------

 Alpha MOs
 -- Occupied --
-14.321 -10.227 -10.224 -10.209 -10.202 -10.201 -10.196  -0.943
 -0.790  -0.765  -0.704  -0.595  -0.556  -0.537  -0.507  -0.469
 -0.446  -0.405  -0.398  -0.370  -0.326  -0.274  -0.265  -0.254
 -0.234

 Beta MOs
 -- Occupied --
-14.321 -10.226 -10.224 -10.204 -10.201 -10.196 -10.193  -0.943
 -0.782  -0.764  -0.693  -0.587  -0.555  -0.529  -0.504  -0.457
 -0.441  -0.403  -0.397  -0.365  -0.324  -0.268  -0.261  -0.252

          Ground-State Mulliken Net Atomic Charges

     Atom                 Charge (a.u.)    Spin (a.u.)
  --------------------------------------------------------
      1 C                    -0.069339       0.042916
      2 C                    -0.103324      -0.167485
      3 C                    -0.198564       1.040342
      4 C                    -0.142468       0.000239
      5 C                     0.055832       0.004843
      6 N                    -0.377576      -0.003559
      7 H                     0.181117      -0.004362
      8 H                     0.164039       0.078677
      9 H                     0.163956       0.004933
     10 H                     0.140229       0.000139
     11 H                     0.143475      -0.000138
     12 C                    -0.110595       0.002980
     13 H                     0.153219       0.000475
  --------------------------------------------------------
  Sum of atomic charges =    -0.000000

                    Cartesian Multipole Moments
 -----------------------------------------------------------------
    Charge (ESU x 10^10)
                -0.0000
    Dipole Moment (Debye)
         X      -0.9619      Y      -0.6188      Z       0.9966
       Tot       1.5170
    Quadrupole Moments (Debye-Ang)
        XX     -39.3471     XY      -4.3698     YY     -37.4915
        XZ       0.0371     YZ       1.5218     ZZ     -40.8862

 Total job time:  18.98s(wall), 49.24s(cpu)
        *  Thank you very much for using Q-Chem.  Have a nice day.  *
