 Q-Chem 5.0, Q-Chem, Inc., Pleasanton, CA (2017)
 Q-Chem 5.0.2 for Intel X86 EM64T Linux

User input:
--------------------------------------------------------------
$molecule
0 2
C        1.4356508775    0.3627178750   -0.8407273442
C        0.1657021475   -1.1187005292    0.6726387517
C       -1.0971203266   -1.1384912338    1.2090964133
C       -1.7837228490    0.0168118175    0.7219708613
C       -0.9169919563    0.7010610383   -0.0937207754
N        0.2808059278    0.0077232856   -0.1276166544
H        2.2390206573   -0.3724011939   -0.7414775354
H        1.0006149806   -1.7961121361    0.7858732904
H       -1.4891258365   -1.8927959800    1.8778547408
H       -2.8019821887    0.3066167729    0.9442225657
H       -1.0308212220    1.6112324799   -0.6634468768
C        1.6030933275    1.4467215022   -1.5718090141
H        2.3948764610    1.8656163016   -2.1728584230
$end

$rem
method                b3lyp
basis                 6-31g(d)
unrestricted          true
symmetry              off
sym_ignore            true
incdft                false
incfock               0
scf_convergence       8
thresh                14
jobtype               opt
scf_guess             read
scf_algorithm         diis
max_scf_cycles        100
geom_opt_tol_gradient 600
geom_opt_tol_displacement 2400
geom_opt_tol_energy   200
geom_opt_max_cycles   100
$end

--------------------------------------------------------------

    2    -286.8723602869      8.73E-10 Convergence criterion met
 Total energy in the final basis set = -286.87236029
   12    -286.8723680729      2.41E-09 Convergence criterion met
 Total energy in the final basis set = -286.87236807
   12    -286.8723736548      7.37E-09 Convergence criterion met
 Total energy in the final basis set = -286.87237365
   12    -286.8723756901      1.56E-09 Convergence criterion met
 Total energy in the final basis set = -286.87237569

             Standard Nuclear Orientation (Angstroms)
    I     Atom           X                Y                Z
 ----------------------------------------------------------------
    1      C       1.4395560989     0.3657077845    -0.8335074088
    2      C       0.1640876335    -1.1220938206     0.6691453803
    3      C      -1.0989896397    -1.1411723380     1.2046484850
    4      C      -1.7826979750     0.0178937292     0.7214986730
    5      C      -0.9138194978     0.7032903081    -0.0908691091
    6      N       0.2822663649     0.0075501480    -0.1259183610
    7      H       2.2549463746    -0.3506935164    -0.7021488862
    8      H       0.9960610008    -1.8038452674     0.7761472699
    9      H      -1.4941250614    -1.8989752508     1.8675625726
   10      H      -2.7994324909     0.3104731765     0.9472084333
   11      H      -1.0242894736     1.6200118143    -0.6506948193
   12      C       1.5941842698     1.4338044708    -1.5903492516
   13      H       2.3822523960     1.8580487618    -2.1927229781
 ----------------------------------------------------------------

   10    -286.8723765821      9.96E-09 Convergence criterion met
 Total energy in the final basis set = -286.87237658
 Final energy is   -286.872376582104
 **  OPTIMIZATION CONVERGED  **

                    Orbital Energies (a.u.)
 --------------------------------------------------------------

 Alpha MOs
 -- Occupied --
-14.392 -10.242 -10.214 -10.205 -10.201 -10.171 -10.170  -0.988
 -0.817  -0.737  -0.720  -0.618  -0.574  -0.544  -0.513  -0.476
 -0.428  -0.423  -0.417  -0.386  -0.374  -0.303  -0.255  -0.224
 -0.210

 Beta MOs
 -- Occupied --
-14.391 -10.243 -10.205 -10.201 -10.198 -10.171 -10.170  -0.987
 -0.812  -0.725  -0.717  -0.605  -0.573  -0.543  -0.500  -0.466
 -0.424  -0.424  -0.414  -0.385  -0.374  -0.301  -0.216  -0.211

          Ground-State Mulliken Net Atomic Charges

     Atom                 Charge (a.u.)    Spin (a.u.)
  --------------------------------------------------------
      1 C                     0.068161      -0.140534
      2 C                     0.027383      -0.002615
      3 C                    -0.193243      -0.005389
      4 C                    -0.186811      -0.008654
      5 C                     0.037417       0.008961
      6 N                    -0.401233       0.019514
      7 H                     0.163153       0.068843
      8 H                     0.144960       0.000097
      9 H                     0.128554       0.001020
     10 H                     0.128885       0.000826
     11 H                     0.154922       0.000533
     12 C                    -0.244437       1.062419
     13 H                     0.172286      -0.005022
  --------------------------------------------------------
  Sum of atomic charges =    -0.000000

                    Cartesian Multipole Moments
 -----------------------------------------------------------------
    Charge (ESU x 10^10)
                -0.0000
    Dipole Moment (Debye)
         X       1.3562      Y      -0.1711      Z      -0.4507
       Tot       1.4393
    Quadrupole Moments (Debye-Ang)
        XX     -35.5740     XY      -1.3819     YY     -39.3101
        XZ      -2.9252     YZ      -3.1013     ZZ     -41.6277

 Total job time:  49.85s(wall), 155.65s(cpu)
        *  Thank you very much for using Q-Chem.  Have a nice day.  *
