 Q-Chem 5.0, Q-Chem, Inc., Pleasanton, CA (2017)
 Q-Chem 5.0.2 for Intel X86 EM64T Linux

User input:
--------------------------------------------------------------
$molecule
0 2
C        1.3899849595    0.0714119942   -0.3340666498
C        0.5748900660   -1.1117353711   -0.9154816949
C       -0.8520277807   -0.6833831597   -1.5204661372
C       -1.3404796951   -0.0892649370   -0.3534441134
C       -0.7169610130    0.8612616313   -1.2083623955
N        0.7280149592    1.1088096931   -1.2602787404
H        2.4307614633    0.1902166014   -0.4899758825
H        0.7583917361   -2.2064494394   -0.9220209423
H       -0.8725166243   -0.3705365936   -2.5707677284
H       -2.3391858171    0.0463274168    0.0471333768
H       -1.2166938949    1.5766503218   -1.9326427920
C        0.1812228118   -0.2650266838    0.3076741658
H       -0.0845922813   -0.7683024603    1.1754055731
$end

$rem
method                b3lyp
basis                 6-31g(d)
unrestricted          true
symmetry              off
sym_ignore            true
incdft                false
incfock               0
scf_convergence       8
thresh                14
jobtype               opt
scf_guess             read
scf_algorithm         diis
max_scf_cycles        100
geom_opt_tol_gradient 600
geom_opt_tol_displacement 2400
geom_opt_tol_energy   200
geom_opt_max_cycles   100
$end

--------------------------------------------------------------

    2    -286.6338440059      1.51E-09 Convergence criterion met
 Total energy in the final basis set = -286.63384401
   15    -286.6764359092      3.19E-09 Convergence criterion met
 Total energy in the final basis set = -286.67643591
   15    -286.7110581098      4.83E-09 Convergence criterion met
 Total energy in the final basis set = -286.71105811
   14    -286.7381895624      9.89E-09 Convergence criterion met
 Total energy in the final basis set = -286.73818956
   15    -286.7589836152      7.46E-09 Convergence criterion met
 Total energy in the final basis set = -286.75898362
   15    -286.7746303565      6.34E-09 Convergence criterion met
 Total energy in the final basis set = -286.77463036
   14    -286.7863103670      8.74E-09 Convergence criterion met
 Total energy in the final basis set = -286.78631037
   14    -286.7951204704      7.80E-09 Convergence criterion met
   11    -286.8383004279      8.13E-09 Convergence criterion met
 Total energy in the final basis set = -286.83830043
   12    -286.8383156150      5.91E-09 Convergence criterion met
 Total energy in the final basis set = -286.83831562
   12    -286.8383224635      2.58E-09 Convergence criterion met
 Total energy in the final basis set = -286.83832246
   11    -286.8383304683      9.38E-09 Convergence criterion met
 Total energy in the final basis set = -286.83833047
   10    -286.8383348570      6.58E-09 Convergence criterion met
 Total energy in the final basis set = -286.83833486
   10    -286.8383371760      9.87E-09 Convergence criterion met
 Total energy in the final basis set = -286.83833718

             Standard Nuclear Orientation (Angstroms)
    I     Atom           X                Y                Z
 ----------------------------------------------------------------
    1      C       1.1388368520     0.1301033545    -0.5184715091
    2      C       0.4743666286    -1.2531039468    -0.9643003816
    3      C      -0.8374594959    -1.0269474181    -1.5549075632
    4      C      -1.1608802277     0.0853830469    -0.5596304153
    5      C      -0.5535354285     1.3426237168    -1.1701388184
    6      N       0.7296616705     1.3371957647    -1.1910903023
    7      H       2.1776486220     0.0535018396    -0.2138813795
    8      H       1.1229969485    -2.1181065079    -1.0608967693
    9      H      -1.2406798123    -1.2337672932    -2.5435616374
   10      H      -2.1705579566     0.1554062288    -0.1489438290
   11      H      -1.1314856185     2.1181055843    -1.6703684598
   12      C       0.0423725512    -0.4664600963     0.2872519159
   13      H       0.0495241562    -0.7639552597     1.3316451883
 ----------------------------------------------------------------

   10    -286.8383379112      8.02E-09 Convergence criterion met
 Total energy in the final basis set = -286.83833791
 Final energy is   -286.838337911185
 **  OPTIMIZATION CONVERGED  **

                    Orbital Energies (a.u.)
 --------------------------------------------------------------

 Alpha MOs
 -- Occupied --
-14.320 -10.224 -10.220 -10.210 -10.209 -10.208 -10.206  -0.968
 -0.856  -0.749  -0.664  -0.606  -0.571  -0.535  -0.517  -0.467
 -0.439  -0.405  -0.400  -0.356  -0.336  -0.299  -0.274  -0.256
 -0.182

 Beta MOs
 -- Occupied --
-14.319 -10.222 -10.219 -10.211 -10.209 -10.207 -10.193  -0.964
 -0.850  -0.741  -0.652  -0.602  -0.567  -0.528  -0.511  -0.461
 -0.434  -0.402  -0.393  -0.348  -0.332  -0.292  -0.262  -0.250

          Ground-State Mulliken Net Atomic Charges

     Atom                 Charge (a.u.)    Spin (a.u.)
  --------------------------------------------------------
      1 C                    -0.019073       0.098168
      2 C                    -0.163748      -0.096266
      3 C                    -0.066188       0.887842
      4 C                    -0.258083      -0.065722
      5 C                     0.088709       0.047875
      6 N                    -0.342289       0.038704
      7 H                     0.151401       0.002791
      8 H                     0.147255       0.005272
      9 H                     0.136267      -0.019260
     10 H                     0.142857       0.022775
     11 H                     0.143032       0.001329
     12 C                    -0.108176       0.077213
     13 H                     0.148035      -0.000722
  --------------------------------------------------------
  Sum of atomic charges =    -0.000000

                    Cartesian Multipole Moments
 -----------------------------------------------------------------
    Charge (ESU x 10^10)
                 0.0000
    Dipole Moment (Debye)
         X      -1.1595      Y      -1.4426      Z       0.8744
       Tot       2.0470
    Quadrupole Moments (Debye-Ang)
        XX     -38.5352     XY      -4.6381     YY     -42.7056
        XZ       3.0892     YZ       1.6722     ZZ     -40.8197

 Total job time:  1062.40s(wall), 1209.75s(cpu)
        *  Thank you very much for using Q-Chem.  Have a nice day.  *
