 Q-Chem 5.0, Q-Chem, Inc., Pleasanton, CA (2017)
 Q-Chem 5.0.2 for Intel X86 EM64T Linux

User input:
--------------------------------------------------------------
$molecule
0 2
C        1.6806220490    0.4064389654   -0.1596845201
C        1.1335791003   -0.8278867552   -0.2626938280
C       -0.3067691375   -1.0694230393   -0.0886928063
C       -1.1622985611    0.3248777942    0.0410068280
C       -0.3382750323    1.5316444022   -0.1462829207
N        0.9507733155    1.5951832289   -0.1467868137
H        2.7561286000    0.5415924400   -0.2233136675
H        1.7630345620   -1.6821874092   -0.4978504089
H       -0.7381328327   -1.9104105128   -0.6337059307
H       -2.1665022145    0.3852148665   -0.3820983531
H       -0.8793018298    2.4560415369   -0.3584331341
C       -0.9654562855   -0.6261488044    1.1361771961
H       -1.7274017331   -1.1249367133    1.7223583585
$end

$rem
method                b3lyp
basis                 6-31+g(d,p)
unrestricted          true
symmetry              off
sym_ignore            true
incdft                false
incfock               0
scf_convergence       6
thresh                14
jobtype               sp
scf_guess             read
scf_algorithm         diis
max_scf_cycles        100
stability_analysis    true
max_cis_cycles        100
cis_n_roots           4
$end

--------------------------------------------------------------

             Standard Nuclear Orientation (Angstroms)
    I     Atom           X                Y                Z
 ----------------------------------------------------------------
    1      C       1.6806220490     0.4064389654    -0.1596845201
    2      C       1.1335791003    -0.8278867552    -0.2626938280
    3      C      -0.3067691375    -1.0694230393    -0.0886928063
    4      C      -1.1622985611     0.3248777942     0.0410068280
    5      C      -0.3382750323     1.5316444022    -0.1462829207
    6      N       0.9507733155     1.5951832289    -0.1467868137
    7      H       2.7561286000     0.5415924400    -0.2233136675
    8      H       1.7630345620    -1.6821874092    -0.4978504089
    9      H      -0.7381328327    -1.9104105128    -0.6337059307
   10      H      -2.1665022145     0.3852148665    -0.3820983531
   11      H      -0.8793018298     2.4560415369    -0.3584331341
   12      C      -0.9654562855    -0.6261488044     1.1361771961
   13      H      -1.7274017331    -1.1249367133     1.7223583585
 ----------------------------------------------------------------

    2    -286.8764961208      2.78E-09 Convergence criterion met
 Total energy in the final basis set = -286.87649612

         TDDFT/TDA Excitation Energies
 ---------------------------------------------------

 Excited state   1: excitation energy (eV) =    2.6848
 Total energy for state  1:                  -286.77783140 au
    <S**2>     :  0.9208
    Trans. Mom.: -0.0600 X  -0.0200 Y   0.0736 Z
    Strength   :     0.0006192936
    D( 24) --> V(  1) amplitude =  0.1773 alpha
    D( 24) --> S(  1) amplitude =  0.9576 beta

 Excited state   2: excitation energy (eV) =    3.1579
 Total energy for state  2:                  -286.76044551 au
    <S**2>     :  2.5783
    Trans. Mom.: -0.0280 X  -0.0153 Y   0.0291 Z
    Strength   :     0.0001447032
    D( 24) --> V(  1) amplitude = -0.5890 alpha
    S(  1) --> V(  1) amplitude =  0.3044 alpha
    D( 24) --> S(  1) amplitude =  0.2205 beta
    D( 24) --> V(  1) amplitude =  0.6765 beta

 Excited state   3: excitation energy (eV) =    3.6236
 Total energy for state  3:                  -286.74333271 au
    <S**2>     :  1.2103
    Trans. Mom.:  0.0372 X  -0.0663 Y   0.0276 Z
    Strength   :     0.0005811573
    D( 23) --> V(  1) amplitude =  0.1898 alpha
    D( 24) --> V(  1) amplitude = -0.2416 alpha
    S(  1) --> V(  1) amplitude = -0.5639 alpha
    D( 23) --> S(  1) amplitude =  0.7137 beta
    D( 23) --> V(  1) amplitude = -0.2251 beta

 Excited state   4: excitation energy (eV) =    3.7376
 Total energy for state  4:                  -286.73914043 au
    <S**2>     :  0.9362
    Trans. Mom.: -0.2061 X  -0.1170 Y   0.2403 Z
    Strength   :     0.0104285937
    D( 23) --> V(  1) amplitude = -0.1666 alpha
    D( 24) --> V(  1) amplitude =  0.1601 alpha
    S(  1) --> V(  1) amplitude =  0.6873 alpha
    D( 23) --> S(  1) amplitude =  0.6565 beta

 ---------------------------------------------------

                    Orbital Energies (a.u.)
 --------------------------------------------------------------

 Alpha MOs
 -- Occupied --
-14.337 -10.240 -10.235 -10.232 -10.230 -10.217 -10.206  -0.946
 -0.878  -0.776  -0.677  -0.651  -0.579  -0.540  -0.500  -0.492
 -0.460  -0.435  -0.387  -0.382  -0.370  -0.309  -0.267  -0.240
 -0.229

 Beta MOs
 -- Occupied --
-14.337 -10.240 -10.235 -10.232 -10.217 -10.216 -10.205  -0.944
 -0.869  -0.774  -0.670  -0.649  -0.565  -0.535  -0.497  -0.483
 -0.456  -0.432  -0.385  -0.380  -0.362  -0.300  -0.262  -0.236

          Ground-State Mulliken Net Atomic Charges

     Atom                 Charge (a.u.)    Spin (a.u.)
  --------------------------------------------------------
      1 C                    -0.252480      -0.035515
      2 C                     0.086116       0.046472
      3 C                    -0.150086      -0.026445
      4 C                    -0.016121       0.028741
      5 C                    -0.054804      -0.047947
      6 N                    -0.182012       0.016335
      7 H                     0.124951       0.000847
      8 H                     0.132705       0.003087
      9 H                     0.144287       0.017132
     10 H                     0.144233       0.022664
     11 H                     0.128448       0.005044
     12 C                    -0.253929       0.991456
     13 H                     0.148691      -0.021870
  --------------------------------------------------------
  Sum of atomic charges =    -0.000000

                    Cartesian Multipole Moments
 -----------------------------------------------------------------
    Charge (ESU x 10^10)
                 0.0000
    Dipole Moment (Debye)
         X      -2.1511      Y      -2.2463      Z      -0.3603
       Tot       3.1310
    Quadrupole Moments (Debye-Ang)
        XX     -37.9190     XY      -3.2343     YY     -43.0356
        XZ      -0.4922     YZ       0.2794     ZZ     -43.9383

 Total job time:  316.89s(wall), 197.72s(cpu)
        *  Thank you very much for using Q-Chem.  Have a nice day.  *
