 Q-Chem 5.0, Q-Chem, Inc., Pleasanton, CA (2017)
 Q-Chem 5.0.2 for Intel X86 EM64T Linux

User input:
--------------------------------------------------------------
$molecule
0 2
C        1.1290306652    0.2003782706    0.4389300968
C        1.0271923875   -0.8095820377   -0.7114818623
C       -0.4106860712   -1.0260874292   -0.4658438804
C       -1.1190603794    0.3115164347   -0.0600503210
C       -0.3880110979    1.5620825015   -0.4196008795
N        0.8558930538    1.5497692232   -0.1109381476
H        2.0070494255    0.1809600550    1.0836372157
H        1.7391646816   -1.6044900340   -0.8984335998
H       -1.0227048808   -1.8670319411   -0.7725431337
H       -2.2005938284    0.2669609232    0.0116614918
H       -0.8431084263    2.4113473388   -0.9266710514
C       -0.2473240822   -0.3909763680    0.9295544276
H       -0.5268414475   -0.7848469369    1.9017796439
$end

$rem
method                b3lyp
basis                 6-31+g(d,p)
unrestricted          true
symmetry              off
sym_ignore            true
incdft                false
incfock               0
scf_convergence       8
thresh                14
jobtype               sp
scf_guess             core
scf_guess_mix         5
scf_algorithm         diis
max_scf_cycles        100
$end

--------------------------------------------------------------

             Standard Nuclear Orientation (Angstroms)
    I     Atom           X                Y                Z
 ----------------------------------------------------------------
    1      C       1.1290306652     0.2003782706     0.4389300968
    2      C       1.0271923875    -0.8095820377    -0.7114818623
    3      C      -0.4106860712    -1.0260874292    -0.4658438804
    4      C      -1.1190603794     0.3115164347    -0.0600503210
    5      C      -0.3880110979     1.5620825015    -0.4196008795
    6      N       0.8558930538     1.5497692232    -0.1109381476
    7      H       2.0070494255     0.1809600550     1.0836372157
    8      H       1.7391646816    -1.6044900340    -0.8984335998
    9      H      -1.0227048808    -1.8670319411    -0.7725431337
   10      H      -2.2005938284     0.2669609232     0.0116614918
   11      H      -0.8431084263     2.4113473388    -0.9266710514
   12      C      -0.2473240822    -0.3909763680     0.9295544276
   13      H      -0.5268414475    -0.7848469369     1.9017796439
 ----------------------------------------------------------------

   22    -286.8575866329      5.82E-09 Convergence criterion met
 Total energy in the final basis set = -286.85758663

                    Orbital Energies (a.u.)
 --------------------------------------------------------------

 Alpha MOs
 -- Occupied --
-14.332 -10.231 -10.231 -10.226 -10.223 -10.222 -10.206  -0.976
 -0.869  -0.757  -0.667  -0.617  -0.584  -0.548  -0.520  -0.473
 -0.438  -0.422  -0.399  -0.375  -0.339  -0.326  -0.277  -0.268
 -0.183

 Beta MOs
 -- Occupied --
-14.332 -10.231 -10.231 -10.226 -10.221 -10.221 -10.193  -0.972
 -0.865  -0.747  -0.656  -0.612  -0.580  -0.546  -0.509  -0.470
 -0.434  -0.416  -0.396  -0.371  -0.327  -0.314  -0.274  -0.266

          Ground-State Mulliken Net Atomic Charges

     Atom                 Charge (a.u.)    Spin (a.u.)
  --------------------------------------------------------
      1 C                    -0.150456      -0.105031
      2 C                    -0.049198       1.026832
      3 C                    -0.177019      -0.078051
      4 C                    -0.085000       0.007293
      5 C                    -0.060556      -0.000876
      6 N                    -0.194053       0.024126
      7 H                     0.134161       0.005414
      8 H                     0.135300      -0.039166
      9 H                     0.141101       0.000030
     10 H                     0.138975       0.002210
     11 H                     0.132675       0.004216
     12 C                    -0.101148       0.144500
     13 H                     0.135217       0.008503
  --------------------------------------------------------
  Sum of atomic charges =     0.000000

                    Cartesian Multipole Moments
 -----------------------------------------------------------------
    Charge (ESU x 10^10)
                 0.0000
    Dipole Moment (Debye)
         X      -2.1691      Y      -2.1324      Z       0.9831
       Tot       3.1966
    Quadrupole Moments (Debye-Ang)
        XX     -39.9624     XY      -4.3429     YY     -43.2449
        XZ       2.0647     YZ      -0.4382     ZZ     -41.9496

 Total job time:  69.88s(wall), 116.07s(cpu)
        *  Thank you very much for using Q-Chem.  Have a nice day.  *
