 Q-Chem 5.0, Q-Chem, Inc., Pleasanton, CA (2017)
 Q-Chem 5.0.2 for Intel X86 EM64T Linux

User input:
--------------------------------------------------------------
$molecule
0 2
C        1.3671138301    0.2915646631    0.2562294130
C        1.0306215280   -0.8469022956   -0.5697244840
C       -0.3971554733   -1.0280557654   -0.3809151903
C       -1.1309559008    0.3430063874    0.0255971610
C       -0.3915608927    1.5466501493   -0.3801693408
N        0.8740001741    1.5430637700   -0.1562367706
H        2.3212675781    0.3393828639    0.7774155469
H        1.7130595547   -1.6632018612   -0.7776282900
H       -0.9928724149   -1.8263145952   -0.8142595419
H       -2.2177655313    0.3343249773   -0.0354882777
H       -0.8648030414    2.3857034573   -0.8861017238
C       -0.4558275421   -0.4897744040    1.0334147233
H       -0.9008636479   -0.9548860878    1.9111796187
$end

$rem
method                b3lyp
basis                 6-31+g(d,p)
unrestricted          true
symmetry              off
sym_ignore            true
incdft                false
incfock               0
scf_convergence       8
thresh                14
jobtype               rpath
scf_guess             core
scf_guess_mix         5
scf_algorithm         diis
max_scf_cycles        100
rpath_direction       1
rpath_tol_displacement 1000
rpath_max_cycles      50
geom_opt_max_cycles   300
geom_opt_hessian      read
$end

--------------------------------------------------------------

   23    -286.8277536404      7.88E-09 Convergence criterion met
 Total energy in the final basis set = -286.82775364
   23    -286.8288911109      2.90E-09 Convergence criterion met
 Total energy in the final basis set = -286.82889111
   23    -286.8288509651      2.91E-09 Convergence criterion met
 Total energy in the final basis set = -286.82885097
   23    -286.8288928547      2.90E-09 Convergence criterion met
 Total energy in the final basis set = -286.82889285
   22    -286.8318754760      9.97E-09 Convergence criterion met
 Total energy in the final basis set = -286.83187548
   23    -286.8318275468      1.99E-09 Convergence criterion met
 Total energy in the final basis set = -286.83182755
   23    -286.8318789836      1.91E-09 Convergence criterion met
 Total energy in the final basis set = -286.83187898
   22    -286.8359396012      5.85E-09 Convergence criterion met
 Total energy in the final basis set = -286.87500624
   21    -286.8763954652      5.16E-09 Convergence criterion met
 Total energy in the final basis set = -286.87639547
   21    -286.8763942679      7.15E-09 Convergence criterion met
 Total energy in the final basis set = -286.87639427
   21    -286.8763975860      5.56E-09 Convergence criterion met
 Total energy in the final basis set = -286.87639759
   22    -286.8756705805      4.36E-09 Convergence criterion met
 Total energy in the final basis set = -286.87567058
   21    -286.8764051563      7.82E-09 Convergence criterion met
 Total energy in the final basis set = -286.87640516
   21    -286.8763943399      5.07E-09 Convergence criterion met
 Total energy in the final basis set = -286.87639434
   21    -286.8764086001      6.86E-09 Convergence criterion met
 Total energy in the final basis set = -286.87640860

                    Orbital Energies (a.u.)
 --------------------------------------------------------------

 Alpha MOs
 -- Occupied --
-14.336 -10.240 -10.235 -10.232 -10.230 -10.217 -10.206  -0.946
 -0.878  -0.776  -0.677  -0.651  -0.579  -0.540  -0.499  -0.493
 -0.460  -0.436  -0.388  -0.381  -0.370  -0.308  -0.267  -0.241
 -0.228

 Beta MOs
 -- Occupied --
-14.336 -10.239 -10.235 -10.232 -10.217 -10.216 -10.205  -0.944
 -0.868  -0.774  -0.669  -0.649  -0.565  -0.535  -0.497  -0.483
 -0.456  -0.433  -0.386  -0.379  -0.362  -0.299  -0.263  -0.236

          Ground-State Mulliken Net Atomic Charges

     Atom                 Charge (a.u.)    Spin (a.u.)
  --------------------------------------------------------
      1 C                    -0.252439      -0.037595
      2 C                     0.074535       0.053732
      3 C                    -0.144252      -0.032894
      4 C                    -0.018954       0.027003
      5 C                    -0.053228      -0.051087
      6 N                    -0.181730       0.017863
      7 H                     0.124840       0.000894
      8 H                     0.133256       0.002861
      9 H                     0.144222       0.016705
     10 H                     0.144174       0.024641
     11 H                     0.128233       0.005025
     12 C                    -0.247201       0.995294
     13 H                     0.148544      -0.022442
  --------------------------------------------------------
  Sum of atomic charges =    -0.000000

                    Cartesian Multipole Moments
 -----------------------------------------------------------------
    Charge (ESU x 10^10)
                -0.0000
    Dipole Moment (Debye)
         X      -2.1491      Y      -2.2480      Z      -0.3207
       Tot       3.1265
    Quadrupole Moments (Debye-Ang)
        XX     -37.9218     XY      -3.2315     YY     -43.0510
        XZ      -0.4007     YZ       0.2601     ZZ     -43.8470

             Standard Nuclear Orientation (Angstroms)
    I     Atom           X                Y                Z
 ----------------------------------------------------------------
    1      C       1.3671138301     0.2915646631     0.2562294130
    2      C       1.0306215280    -0.8469022956    -0.5697244840
    3      C      -0.3971554733    -1.0280557654    -0.3809151903
    4      C      -1.1309559008     0.3430063874     0.0255971610
    5      C      -0.3915608927     1.5466501493    -0.3801693408
    6      N       0.8740001741     1.5430637700    -0.1562367706
    7      H       2.3212675781     0.3393828639     0.7774155469
    8      H       1.7130595547    -1.6632018612    -0.7776282900
    9      H      -0.9928724149    -1.8263145952    -0.8142595419
   10      H      -2.2177655313     0.3343249773    -0.0354882777
   11      H      -0.8648030414     2.3857034573    -0.8861017238
   12      C      -0.4558275421    -0.4897744040     1.0334147233
   13      H      -0.9008636479    -0.9548860878     1.9111796187
 ----------------------------------------------------------------

 Total job time:  19359.98s(wall), 33467.13s(cpu)
        *  Thank you very much for using Q-Chem.  Have a nice day.  *
