 Q-Chem 5.0, Q-Chem, Inc., Pleasanton, CA (2017)
 Q-Chem 5.0.2 for Intel X86 EM64T Linux

User input:
--------------------------------------------------------------
$molecule
0 2
C        1.6726356852    0.4024927058   -0.1440338710
C        1.1245045201   -0.8304792601   -0.2699356783
C       -0.3168396244   -1.0692243879   -0.1080810380
C       -1.1671341584    0.3266186545    0.0492677605
C       -0.3448684868    1.5300885188   -0.1576363527
N        0.9443683625    1.5916159497   -0.1508227081
H        2.7499928199    0.5354444618   -0.1758755344
H        1.7555415812   -1.6847127132   -0.4998888114
H       -0.7562232948   -1.8992276316   -0.6630271271
H       -2.1793306105    0.3871683945   -0.3547500944
H       -0.8833524660    2.4483642498   -0.3998791306
C       -0.9522144492   -0.6328955002    1.1322498293
H       -1.6928216537   -1.1306921735    1.7457255990
$end

$rem
method                b3lyp
basis                 6-31+g(d,p)
unrestricted          true
symmetry              off
sym_ignore            true
incdft                false
incfock               0
scf_convergence       8
thresh                14
jobtype               opt
scf_guess             read
scf_algorithm         diis
max_scf_cycles        100
geom_opt_max_cycles   300
$end

--------------------------------------------------------------

    2    -286.8764086004      3.43E-09 Convergence criterion met
 Total energy in the final basis set = -286.87640860
   12    -286.8764604130      5.18E-09 Convergence criterion met
 Total energy in the final basis set = -286.87646041
   12    -286.8764894543      7.74E-09 Convergence criterion met
 Total energy in the final basis set = -286.87648945
   11    -286.8764938299      4.89E-09 Convergence criterion met
 Total energy in the final basis set = -286.87649383
   11    -286.8764958771      3.35E-09 Convergence criterion met
 Total energy in the final basis set = -286.87649588

             Standard Nuclear Orientation (Angstroms)
    I     Atom           X                Y                Z
 ----------------------------------------------------------------
    1      C       1.6771034509     0.4044821399    -0.1594296860
    2      C       1.1300605022    -0.8298435807    -0.2624389939
    3      C      -0.3102877356    -1.0713798648    -0.0884379722
    4      C      -1.1658171592     0.3229209687     0.0412616621
    5      C      -0.3417936304     1.5296875767    -0.1460280866
    6      N       0.9472547174     1.5932264034    -0.1465319796
    7      H       2.7526100019     0.5396356145    -0.2230588334
    8      H       1.7595159639    -1.6841442347    -0.4975955748
    9      H      -0.7416514308    -1.9123673383    -0.6334510966
   10      H      -2.1700208126     0.3832580410    -0.3818435190
   11      H      -0.8828204279     2.4540847114    -0.3581783000
   12      C      -0.9689748836    -0.6281056299     1.1364320302
   13      H      -1.7309203312    -1.1268935388     1.7226131926
 ----------------------------------------------------------------

    8    -286.8764961209      8.39E-09 Convergence criterion met
 Total energy in the final basis set = -286.87649612
 Final energy is   -286.876496120858
 **  OPTIMIZATION CONVERGED  **

                    Orbital Energies (a.u.)
 --------------------------------------------------------------

 Alpha MOs
 -- Occupied --
-14.337 -10.240 -10.235 -10.232 -10.230 -10.217 -10.206  -0.946
 -0.878  -0.776  -0.677  -0.651  -0.579  -0.540  -0.500  -0.492
 -0.460  -0.435  -0.387  -0.382  -0.370  -0.309  -0.267  -0.240
 -0.229

 Beta MOs
 -- Occupied --
-14.337 -10.240 -10.235 -10.232 -10.217 -10.216 -10.205  -0.944
 -0.869  -0.774  -0.670  -0.649  -0.565  -0.535  -0.497  -0.483
 -0.456  -0.432  -0.385  -0.380  -0.362  -0.300  -0.262  -0.236

          Ground-State Mulliken Net Atomic Charges

     Atom                 Charge (a.u.)    Spin (a.u.)
  --------------------------------------------------------
      1 C                    -0.252481      -0.035487
      2 C                     0.086117       0.046437
      3 C                    -0.150086      -0.026437
      4 C                    -0.016120       0.028733
      5 C                    -0.054804      -0.047916
      6 N                    -0.182012       0.016313
      7 H                     0.124951       0.000845
      8 H                     0.132705       0.003090
      9 H                     0.144287       0.017131
     10 H                     0.144233       0.022664
     11 H                     0.128448       0.005041
     12 C                    -0.253928       0.991457
     13 H                     0.148691      -0.021871
  --------------------------------------------------------
  Sum of atomic charges =    -0.000000

                    Cartesian Multipole Moments
 -----------------------------------------------------------------
    Charge (ESU x 10^10)
                -0.0000
    Dipole Moment (Debye)
         X      -2.1511      Y      -2.2464      Z      -0.3603
       Tot       3.1310
    Quadrupole Moments (Debye-Ang)
        XX     -37.9039     XY      -3.2222     YY     -43.0268
        XZ      -0.4915     YZ       0.2796     ZZ     -43.9385

 Total job time:  251.20s(wall), 391.18s(cpu)
        *  Thank you very much for using Q-Chem.  Have a nice day.  *
