 Q-Chem 5.0, Q-Chem, Inc., Pleasanton, CA (2017)
 Q-Chem 5.0.2 for Intel X86 EM64T Linux

User input:
--------------------------------------------------------------
$molecule
0 2
C        1.0984280998    0.1833698482    0.5383745806
C        0.8752620403   -0.9764411698   -0.4447151440
C       -0.4341580857   -0.9841728305   -0.7444337796
C       -1.0770136966    0.1721538520    0.0477733834
C       -0.3961764528    1.4568939510   -0.4667576251
N        0.8526068123    1.4877831580   -0.2047264531
H        2.0458961776    0.2017927456    1.0748897167
H        1.6543758370   -1.6244571172   -0.8307698462
H       -0.9636497254   -1.6338623538   -1.4326992095
H       -2.1641722463    0.1734137747    0.1279384290
H       -0.8990312387    2.2499896698   -1.0175988039
C       -0.2095794365    0.0337633389    1.3033542732
H       -0.3827880851   -0.7402268669    2.0493704784
$end

$rem
method                b3lyp
basis                 6-31g(d)
unrestricted          true
symmetry              off
sym_ignore            true
incdft                false
incfock               0
scf_convergence       8
thresh                14
jobtype               opt
scf_guess             core
scf_guess_mix         5
scf_algorithm         diis
max_scf_cycles        100
geom_opt_max_cycles   300
$end

--------------------------------------------------------------

   21    -286.8516348652      2.53E-09 Convergence criterion met
 Total energy in the final basis set = -286.85163487
   16    -286.8516359421      3.89E-09 Convergence criterion met
 Total energy in the final basis set = -286.85163594
   16    -286.8516375269      4.03E-09 Convergence criterion met
 Total energy in the final basis set = -286.85163753

             Standard Nuclear Orientation (Angstroms)
    I     Atom           X                Y                Z
 ----------------------------------------------------------------
    1      C       1.0985094330     0.1839562896     0.5374820328
    2      C       0.8754695473    -0.9762216475    -0.4447827596
    3      C      -0.4334755098    -0.9835648469    -0.7449802152
    4      C      -1.0769748012     0.1722851904     0.0476278394
    5      C      -0.3965941324     1.4571040686    -0.4665545873
    6      N       0.8522713095     1.4877023731    -0.2063691292
    7      H       2.0457613317     0.2012382485     1.0744545060
    8      H       1.6541697789    -1.6259804609    -0.8287524447
    9      H      -0.9627012729    -1.6343201000    -1.4325359913
   10      H      -2.1640456805     0.1737690686     0.1282376698
   11      H      -0.8995453322     2.2510901379    -1.0160900970
   12      C      -0.2101619057     0.0339504048     1.3035616432
   13      H      -0.3826827659    -0.7410087262     2.0487015330
 ----------------------------------------------------------------

   16    -286.8516378366      4.00E-09 Convergence criterion met
 Total energy in the final basis set = -286.85163784
 Final energy is   -286.851637836603
 **  OPTIMIZATION CONVERGED  **

                    Orbital Energies (a.u.)
 --------------------------------------------------------------

 Alpha MOs
 -- Occupied --
-14.322 -10.224 -10.220 -10.210 -10.204 -10.201 -10.197  -0.952
 -0.821  -0.726  -0.705  -0.579  -0.573  -0.531  -0.512  -0.472
 -0.418  -0.410  -0.381  -0.373  -0.348  -0.294  -0.271  -0.258
 -0.196

 Beta MOs
 -- Occupied --
-14.321 -10.224 -10.221 -10.210 -10.200 -10.196 -10.190  -0.949
 -0.815  -0.725  -0.690  -0.577  -0.561  -0.527  -0.509  -0.463
 -0.414  -0.406  -0.379  -0.369  -0.342  -0.287  -0.261  -0.255

          Ground-State Mulliken Net Atomic Charges

     Atom                 Charge (a.u.)    Spin (a.u.)
  --------------------------------------------------------
      1 C                    -0.094390      -0.044990
      2 C                    -0.087875       0.040304
      3 C                    -0.095936       0.079340
      4 C                    -0.246045      -0.043901
      5 C                     0.092350      -0.008746
      6 N                    -0.325239       0.021819
      7 H                     0.139797       0.003025
      8 H                     0.146104       0.000881
      9 H                     0.145552       0.000363
     10 H                     0.133963       0.002857
     11 H                     0.149648      -0.000177
     12 C                    -0.096775       0.975745
     13 H                     0.138846      -0.026521
  --------------------------------------------------------
  Sum of atomic charges =     0.000000

                    Cartesian Multipole Moments
 -----------------------------------------------------------------
    Charge (ESU x 10^10)
                -0.0000
    Dipole Moment (Debye)
         X      -1.4462      Y      -1.8696      Z      -0.2296
       Tot       2.3747
    Quadrupole Moments (Debye-Ang)
        XX     -38.5208     XY      -4.0812     YY     -42.6217
        XZ       2.0201     YZ      -0.0560     ZZ     -40.3400

 Total job time:  164.57s(wall), 218.70s(cpu)
        *  Thank you very much for using Q-Chem.  Have a nice day.  *
