 Q-Chem 5.0, Q-Chem, Inc., Pleasanton, CA (2017)
 Q-Chem 5.0.2 for Intel X86 EM64T Linux

User input:
--------------------------------------------------------------
$molecule
0 2
C        1.3666804862    0.2926692517    0.2507176877
C        1.0322188276   -0.8421316946   -0.5780694130
C       -0.3969526543   -1.0249879706   -0.3808636951
C       -1.1287860054    0.3408361157    0.0261340738
C       -0.3903912191    1.5467467748   -0.3769776505
N        0.8744323055    1.5453022386   -0.1601403627
H        2.3229198669    0.3416930346    0.7699811991
H        1.7095049962   -1.6703717282   -0.7558287194
H       -0.9932038677   -1.8218894196   -0.8178528545
H       -2.2159672318    0.3319481360   -0.0335630720
H       -0.8669992837    2.3863184024   -0.8810126839
C       -0.4526338754   -0.4928670327    1.0335573954
H       -0.9065641245   -0.9587048489    1.9072309390
$end

$rem
method                b3lyp
basis                 6-31+g(d,p)
unrestricted          true
symmetry              off
sym_ignore            true
incdft                false
incfock               0
scf_convergence       8
thresh                14
jobtype               ts
scf_guess             read
scf_algorithm         diis
max_scf_cycles        100
geom_opt_max_cycles   500
geom_opt_dmax         100
geom_opt_tol_gradient 10
geom_opt_hessian      read
$end

--------------------------------------------------------------

    2    -286.8277089943      5.48E-10 Convergence criterion met
 Total energy in the final basis set = -286.82770899
   13    -286.8277534410      3.62E-09 Convergence criterion met
 Total energy in the final basis set = -286.82775344

             Standard Nuclear Orientation (Angstroms)
    I     Atom           X                Y                Z
 ----------------------------------------------------------------
    1      C       1.3671138301     0.2915646631     0.2562294130
    2      C       1.0306215280    -0.8469022956    -0.5697244840
    3      C      -0.3971554733    -1.0280557654    -0.3809151903
    4      C      -1.1309559008     0.3430063874     0.0255971610
    5      C      -0.3915608927     1.5466501493    -0.3801693408
    6      N       0.8740001741     1.5430637700    -0.1562367706
    7      H       2.3212675781     0.3393828639     0.7774155469
    8      H       1.7130595547    -1.6632018612    -0.7776282900
    9      H      -0.9928724149    -1.8263145952    -0.8142595419
   10      H      -2.2177655313     0.3343249773    -0.0354882777
   11      H      -0.8648030414     2.3857034573    -0.8861017238
   12      C      -0.4558275421    -0.4897744040     1.0334147233
   13      H      -0.9008636479    -0.9548860878     1.9111796187
 ----------------------------------------------------------------

   11    -286.8277536404      3.18E-09 Convergence criterion met
 Total energy in the final basis set = -286.82775364
 Final energy is   -286.827753640425
 **  OPTIMIZATION CONVERGED  **

                    Orbital Energies (a.u.)
 --------------------------------------------------------------

 Alpha MOs
 -- Occupied --
-14.341 -10.244 -10.236 -10.226 -10.224 -10.219 -10.210  -0.965
 -0.871  -0.772  -0.664  -0.634  -0.578  -0.543  -0.512  -0.477
 -0.454  -0.431  -0.416  -0.369  -0.349  -0.292  -0.284  -0.256
 -0.181

 Beta MOs
 -- Occupied --
-14.341 -10.246 -10.237 -10.227 -10.223 -10.209 -10.200  -0.962
 -0.863  -0.763  -0.655  -0.632  -0.568  -0.540  -0.504  -0.472
 -0.451  -0.428  -0.407  -0.367  -0.332  -0.292  -0.282  -0.239

          Ground-State Mulliken Net Atomic Charges

     Atom                 Charge (a.u.)    Spin (a.u.)
  --------------------------------------------------------
      1 C                    -0.135956      -0.198318
      2 C                     0.000893       0.755675
      3 C                    -0.130421      -0.087415
      4 C                    -0.071972      -0.014150
      5 C                    -0.064438      -0.051230
      6 N                    -0.150239       0.039855
      7 H                     0.127175       0.010724
      8 H                     0.141477      -0.036383
      9 H                     0.140151       0.001435
     10 H                     0.142280       0.021222
     11 H                     0.134158       0.002586
     12 C                    -0.262497       0.544217
     13 H                     0.129389       0.011781
  --------------------------------------------------------
  Sum of atomic charges =    -0.000000

                    Cartesian Multipole Moments
 -----------------------------------------------------------------
    Charge (ESU x 10^10)
                -0.0000
    Dipole Moment (Debye)
         X      -1.7792      Y      -1.8262      Z       0.0961
       Tot       2.5514
    Quadrupole Moments (Debye-Ang)
        XX     -38.6986     XY      -3.8405     YY     -42.6922
        XZ       1.3749     YZ      -0.2204     ZZ     -43.1611

 Total job time:  124.80s(wall), 191.50s(cpu)
        *  Thank you very much for using Q-Chem.  Have a nice day.  *
