 Q-Chem 5.0, Q-Chem, Inc., Pleasanton, CA (2017)
 Q-Chem 5.0.2 for Intel X86 EM64T Linux

User input:
--------------------------------------------------------------
$molecule
0 2
C        1.4102593078    0.3067171272    0.2236715233
C        0.9970737156   -0.8756588561   -0.4729363080
C       -0.4097842121   -0.9622485335   -0.5120660541
C       -1.0940602419    0.2726526969    0.0222721248
C       -0.3862147814    1.5188972988   -0.3879238546
N        0.8804424877    1.5381870236   -0.2084315810
H        2.4059749072    0.3739874427    0.6581583967
H        1.6672928262   -1.6991155453   -0.6866398562
H       -0.9560440564   -1.7836181876   -0.9652339695
H       -2.1867806586    0.2831682342   -0.0469690083
H       -0.9010078988    2.3780988519   -0.8173079226
C       -0.4857499469   -0.3563048210    1.2467666493
H       -0.9871432278   -1.0202014725    1.9499527041
$end

$rem
method                b3lyp
basis                 6-31g(d)
unrestricted          true
symmetry              off
sym_ignore            true
incdft                false
incfock               0
scf_convergence       8
thresh                14
jobtype               ts
scf_guess             read
scf_algorithm         diis
max_scf_cycles        100
geom_opt_max_cycles   500
geom_opt_dmax         100
geom_opt_tol_gradient 10
geom_opt_hessian      read
$end

--------------------------------------------------------------

    2    -286.7871784705      2.53E-09 Convergence criterion met
 Total energy in the final basis set = -286.78717847
   16    -286.7881694701      8.74E-09 Convergence criterion met
 Total energy in the final basis set = -286.78816947
   16    -286.7895939695      7.92E-09 Convergence criterion met
 Total energy in the final basis set = -286.78959397
   16    -286.7914118424      6.48E-09 Convergence criterion met
 Total energy in the final basis set = -286.79141184
   16    -286.7933787826      5.34E-09 Convergence criterion met
 Total energy in the final basis set = -286.79337878
   16    -286.7953386419      4.47E-09 Convergence criterion met
 Total energy in the final basis set = -286.79533864
   15    -286.7972113425      9.22E-09 Convergence criterion met
 Total energy in the final basis set = -286.79721134
   15    -286.7989438122      9.64E-09 Convergence criterion met
    9    -286.8056466803      9.53E-09 Convergence criterion met
 Total energy in the final basis set = -286.80564668
   11    -286.8056466628      3.34E-09 Convergence criterion met
 Total energy in the final basis set = -286.80564666
   10    -286.8056467423      9.05E-09 Convergence criterion met
 Total energy in the final basis set = -286.80564674
    8    -286.8056467515      9.41E-09 Convergence criterion met
 Total energy in the final basis set = -286.80564675
    8    -286.8056467574      5.98E-09 Convergence criterion met
 Total energy in the final basis set = -286.80564676
    8    -286.8056467581      9.59E-09 Convergence criterion met
 Total energy in the final basis set = -286.80564676

             Standard Nuclear Orientation (Angstroms)
    I     Atom           X                Y                Z
 ----------------------------------------------------------------
    1      C       1.3666804862     0.2926692517     0.2507176877
    2      C       1.0322188276    -0.8421316946    -0.5780694130
    3      C      -0.3969526543    -1.0249879706    -0.3808636951
    4      C      -1.1287860054     0.3408361157     0.0261340738
    5      C      -0.3903912191     1.5467467748    -0.3769776505
    6      N       0.8744323055     1.5453022386    -0.1601403627
    7      H       2.3229198669     0.3416930346     0.7699811991
    8      H       1.7095049962    -1.6703717282    -0.7558287194
    9      H      -0.9932038677    -1.8218894196    -0.8178528545
   10      H      -2.2159672318     0.3319481360    -0.0335630720
   11      H      -0.8669992837     2.3863184024    -0.8810126839
   12      C      -0.4526338754    -0.4928670327     1.0335573954
   13      H      -0.9065641245    -0.9587048489     1.9072309390
 ----------------------------------------------------------------

    8    -286.8056467591      7.01E-09 Convergence criterion met
 Total energy in the final basis set = -286.80564676
 Final energy is   -286.805646759139
 **  OPTIMIZATION CONVERGED  **

                    Orbital Energies (a.u.)
 --------------------------------------------------------------

 Alpha MOs
 -- Occupied --
-14.327 -10.233 -10.226 -10.215 -10.212 -10.207 -10.197  -0.953
 -0.860  -0.761  -0.654  -0.623  -0.569  -0.534  -0.503  -0.467
 -0.445  -0.421  -0.405  -0.359  -0.339  -0.280  -0.273  -0.245
 -0.170

 Beta MOs
 -- Occupied --
-14.327 -10.235 -10.226 -10.216 -10.212 -10.197 -10.187  -0.951
 -0.852  -0.752  -0.644  -0.622  -0.559  -0.531  -0.495  -0.462
 -0.442  -0.418  -0.396  -0.357  -0.321  -0.281  -0.271  -0.227

          Ground-State Mulliken Net Atomic Charges

     Atom                 Charge (a.u.)    Spin (a.u.)
  --------------------------------------------------------
      1 C                    -0.062465      -0.177529
      2 C                    -0.047227       0.724830
      3 C                    -0.169369      -0.078115
      4 C                    -0.196374       0.013419
      5 C                     0.112115      -0.032690
      6 N                    -0.340714       0.020501
      7 H                     0.141811       0.011093
      8 H                     0.145771      -0.036019
      9 H                     0.147940       0.001488
     10 H                     0.150868       0.019504
     11 H                     0.147721       0.002608
     12 C                    -0.170227       0.518923
     13 H                     0.140152       0.011985
  --------------------------------------------------------
  Sum of atomic charges =    -0.000000

                    Cartesian Multipole Moments
 -----------------------------------------------------------------
    Charge (ESU x 10^10)
                 0.0000
    Dipole Moment (Debye)
         X      -1.5927      Y      -1.6192      Z      -0.0263
       Tot       2.2714
    Quadrupole Moments (Debye-Ang)
        XX     -37.5718     XY      -3.3481     YY     -41.3013
        XZ       1.0819     YZ      -0.2131     ZZ     -41.5806

 Total job time:  940.12s(wall), 1012.03s(cpu)
        *  Thank you very much for using Q-Chem.  Have a nice day.  *
