 Q-Chem 5.0, Q-Chem, Inc., Pleasanton, CA (2017)
 Q-Chem 5.0.2 for Intel X86 EM64T Linux

User input:
--------------------------------------------------------------
$molecule
0 2
C        1.3465104195    0.8469828365   -0.5700229709
C        0.2498509821   -1.4175871674   -0.2288799240
C       -0.9303211124   -1.0644071882    0.3542008989
C       -1.3755064533    0.2694998004    0.6674314811
C       -0.7119144328    1.4632636173    0.4570171237
N        0.4898041816    1.7747225393   -0.0831427828
H        2.2547772053    1.3025389338   -0.9692946358
H        0.4268808946   -2.4788071002   -0.3925520185
H       -1.6168568507   -1.8669579562    0.6148219268
H       -2.3541047705    0.3526943603    1.1339956277
H       -1.2519685905    2.3527968545    0.7876220679
C        1.3016303249   -0.5320265781   -0.6593694333
H        2.1712182022   -1.0027129518   -1.1118273608
$end

$rem
method                b3lyp
basis                 6-31g(d)
unrestricted          true
symmetry              off
sym_ignore            true
incdft                false
incfock               0
scf_convergence       8
thresh                14
jobtype               opt
scf_guess             read
scf_algorithm         diis
max_scf_cycles        100
geom_opt_tol_gradient 600
geom_opt_tol_displacement 2400
geom_opt_tol_energy   200
geom_opt_max_cycles   100
$end

--------------------------------------------------------------

    2    -286.9243426791      1.15E-09 Convergence criterion met
 Total energy in the final basis set = -286.92434268
   13    -286.9243457448      3.17E-09 Convergence criterion met
 Total energy in the final basis set = -286.92434574

             Standard Nuclear Orientation (Angstroms)
    I     Atom           X                Y                Z
 ----------------------------------------------------------------
    1      C       1.3477047272     0.8471296172    -0.5697640383
    2      C       0.2488620568    -1.4170829504    -0.2307117182
    3      C      -0.9301891251    -1.0642657178     0.3548601779
    4      C      -1.3745302630     0.2693635505     0.6704238053
    5      C      -0.7129068939     1.4635161451     0.4553742331
    6      N       0.4882152111     1.7744042834    -0.0865614380
    7      H       2.2588456153     1.3015004425    -0.9657610611
    8      H       0.4248831534    -2.4779086164    -0.3975467679
    9      H      -1.6166099203    -1.8671030501     0.6165589483
   10      H      -2.3525403119     0.3516514122     1.1385075366
   11      H      -1.2550042283     2.3531072699     0.7839425829
   12      C       1.3014589203    -0.5316183585    -0.6593785662
   13      H       2.1718110582    -1.0026940273    -1.1099436944
 ----------------------------------------------------------------

   13    -286.9243466875      4.21E-09 Convergence criterion met
 Total energy in the final basis set = -286.92434669
 Final energy is   -286.924346687478
 **  OPTIMIZATION CONVERGED  **

                    Orbital Energies (a.u.)
 --------------------------------------------------------------

 Alpha MOs
 -- Occupied --
-14.322 -10.232 -10.232 -10.212 -10.211 -10.201 -10.201  -0.922
 -0.818  -0.784  -0.693  -0.667  -0.551  -0.537  -0.518  -0.449
 -0.439  -0.414  -0.394  -0.386  -0.349  -0.322  -0.299  -0.251
 -0.162

 Beta MOs
 -- Occupied --
-14.314 -10.233 -10.233 -10.210 -10.210 -10.196 -10.196  -0.911
 -0.809  -0.777  -0.681  -0.665  -0.546  -0.535  -0.514  -0.447
 -0.438  -0.411  -0.383  -0.373  -0.348  -0.295  -0.276  -0.241

          Ground-State Mulliken Net Atomic Charges

     Atom                 Charge (a.u.)    Spin (a.u.)
  --------------------------------------------------------
      1 C                     0.035407      -0.113169
      2 C                    -0.111264       0.092681
      3 C                    -0.111330       0.094751
      4 C                    -0.131228       0.346031
      5 C                     0.035352      -0.112116
      6 N                    -0.423235       0.387067
      7 H                     0.142661       0.003428
      8 H                     0.141960      -0.006586
      9 H                     0.141909      -0.006685
     10 H                     0.134345      -0.018288
     11 H                     0.142631       0.003377
     12 C                    -0.131550       0.347886
     13 H                     0.134342      -0.018377
  --------------------------------------------------------
  Sum of atomic charges =    -0.000000

                    Cartesian Multipole Moments
 -----------------------------------------------------------------
    Charge (ESU x 10^10)
                -0.0000
    Dipole Moment (Debye)
         X      -0.5938      Y      -2.1607      Z       0.1055
       Tot       2.2433
    Quadrupole Moments (Debye-Ang)
        XX     -36.5003     XY      -1.7809     YY     -41.8202
        XZ      -3.3940     YZ       0.9544     ZZ     -41.6776

 Total job time:  184.47s(wall), 99.31s(cpu)
        *  Thank you very much for using Q-Chem.  Have a nice day.  *
