 Q-Chem 5.0, Q-Chem, Inc., Pleasanton, CA (2017)
 Q-Chem 5.0.2 for Intel X86 EM64T Linux

User input:
--------------------------------------------------------------
$molecule
0 2
C        1.2914289312    0.2883554586    0.2188096798
C        0.6185732303   -1.0280392335   -0.1884225647
C       -0.7075913348   -0.6187080615   -0.8026821528
C       -1.0712310400    0.1891352462    0.3870723877
C       -0.5161383866    1.2053608974   -0.6012146624
N        0.8031423456    1.4157166063   -0.5176431976
H        2.3308991287    0.2818804433    0.5259278281
H        1.1653707702   -1.9495745496   -0.3491213477
H       -1.2781603239   -1.0008219704   -1.6388113869
H       -2.0535200342    0.3118473936    0.8360054822
H       -1.1589882235    1.8273670822   -1.2135102705
C        0.2102770841   -0.3247908524    1.1059317368
H        0.3175117754   -0.6279934520    2.1412087204
$end

$rem
method                b3lyp
basis                 6-31+g(d,p)
unrestricted          true
symmetry              off
sym_ignore            true
incdft                false
incfock               0
scf_convergence       6
thresh                14
jobtype               sp
scf_guess             read
scf_algorithm         diis
max_scf_cycles        100
stability_analysis    true
max_cis_cycles        100
cis_n_roots           4
$end

--------------------------------------------------------------

             Standard Nuclear Orientation (Angstroms)
    I     Atom           X                Y                Z
 ----------------------------------------------------------------
    1      C       1.2914289312     0.2883554586     0.2188096798
    2      C       0.6185732303    -1.0280392335    -0.1884225647
    3      C      -0.7075913348    -0.6187080615    -0.8026821528
    4      C      -1.0712310400     0.1891352462     0.3870723877
    5      C      -0.5161383866     1.2053608974    -0.6012146624
    6      N       0.8031423456     1.4157166063    -0.5176431976
    7      H       2.3308991287     0.2818804433     0.5259278281
    8      H       1.1653707702    -1.9495745496    -0.3491213477
    9      H      -1.2781603239    -1.0008219704    -1.6388113869
   10      H      -2.0535200342     0.3118473936     0.8360054822
   11      H      -1.1589882235     1.8273670822    -1.2135102705
   12      C       0.2102770841    -0.3247908524     1.1059317368
   13      H       0.3175117754    -0.6279934520     2.1412087204
 ----------------------------------------------------------------

    2    -286.8367457227      3.72E-09 Convergence criterion met
 Total energy in the final basis set = -286.83674572

         TDDFT/TDA Excitation Energies
 ---------------------------------------------------

 Excited state   1: excitation energy (eV) =    2.6020
 Total energy for state  1:                  -286.74112544 au
    <S**2>     :  0.7683
    Trans. Mom.:  0.3318 X   0.2073 Y   0.0314 Z
    Strength   :     0.0098193641
    D( 23) --> S(  1) amplitude = -0.1690 beta
    D( 24) --> S(  1) amplitude =  0.9592 beta

 Excited state   2: excitation energy (eV) =    2.9544
 Total energy for state  2:                  -286.72817204 au
    <S**2>     :  0.7893
    Trans. Mom.:  0.0278 X   0.0635 Y  -0.0212 Z
    Strength   :     0.0003805280
    D( 22) --> S(  1) amplitude =  0.2059 beta
    D( 23) --> S(  1) amplitude =  0.9507 beta
    D( 24) --> S(  1) amplitude =  0.1838 beta

 Excited state   3: excitation energy (eV) =    3.8741
 Total energy for state  3:                  -286.69437681 au
    <S**2>     :  0.7894
    Trans. Mom.:  0.1529 X  -0.0891 Y   0.1761 Z
    Strength   :     0.0059151713
    D( 22) --> S(  1) amplitude =  0.9675 beta
    D( 23) --> S(  1) amplitude = -0.2176 beta

 Excited state   4: excitation energy (eV) =    4.6578
 Total energy for state  4:                  -286.66557497 au
    <S**2>     :  0.8224
    Trans. Mom.:  0.0287 X  -0.1434 Y  -0.0727 Z
    Strength   :     0.0030432215
    S(  1) --> V(  1) amplitude =  0.9810 alpha
    S(  1) --> V(  2) amplitude =  0.1579 alpha

 ---------------------------------------------------

                    Orbital Energies (a.u.)
 --------------------------------------------------------------

 Alpha MOs
 -- Occupied --
-14.336 -10.230 -10.230 -10.225 -10.221 -10.216 -10.214  -0.990
 -0.853  -0.786  -0.664  -0.603  -0.582  -0.549  -0.537  -0.456
 -0.451  -0.418  -0.414  -0.387  -0.350  -0.293  -0.278  -0.256
 -0.202

 Beta MOs
 -- Occupied --
-14.325 -10.232 -10.226 -10.222 -10.220 -10.215 -10.214  -0.980
 -0.837  -0.781  -0.654  -0.601  -0.577  -0.543  -0.532  -0.453
 -0.445  -0.411  -0.403  -0.378  -0.338  -0.287  -0.265  -0.241

          Ground-State Mulliken Net Atomic Charges

     Atom                 Charge (a.u.)    Spin (a.u.)
  --------------------------------------------------------
      1 C                    -0.274934      -0.019335
      2 C                    -0.022939      -0.032055
      3 C                    -0.139772       0.561108
      4 C                     0.043114      -0.025561
      5 C                    -0.238752      -0.147434
      6 N                    -0.111635       0.576314
      7 H                     0.140779       0.000734
      8 H                     0.134548      -0.000694
      9 H                     0.140715      -0.023166
     10 H                     0.130716       0.012035
     11 H                     0.141064       0.003600
     12 C                    -0.073440       0.098952
     13 H                     0.130536      -0.004498
  --------------------------------------------------------
  Sum of atomic charges =     0.000000

                    Cartesian Multipole Moments
 -----------------------------------------------------------------
    Charge (ESU x 10^10)
                 0.0000
    Dipole Moment (Debye)
         X      -1.5589      Y      -2.1447      Z       0.8836
       Tot       2.7948
    Quadrupole Moments (Debye-Ang)
        XX     -38.7534     XY      -4.5024     YY     -45.0112
        XZ       2.9675     YZ       1.3734     ZZ     -40.5506

 Total job time:  185.93s(wall), 182.31s(cpu)
        *  Thank you very much for using Q-Chem.  Have a nice day.  *
