 Q-Chem 5.0, Q-Chem, Inc., Pleasanton, CA (2017)
 Q-Chem 5.0.2 for Intel X86 EM64T Linux

User input:
--------------------------------------------------------------
$molecule
0 2
C        1.2521785188    0.2904034341    0.1752140049
C        0.5899811805   -1.1243724622   -0.1734495836
C       -0.7548097676   -0.9467461782   -0.7021208947
C       -1.0475459933    0.2060051445    0.2555312202
C       -0.4990821194    1.4379093787   -0.4536865988
N        0.7838793682    1.4512654324   -0.5361386470
H        2.3061313601    0.2446440891    0.4257634231
H        1.2486217820   -1.9812572572   -0.2667342020
H       -1.2131632232   -1.2149101780   -1.6503168362
H       -2.0345117610    0.2826098306    0.7151071739
H       -1.1150519513    2.1704455650   -0.9707923711
C        0.2082700142   -0.2821749579    1.0638695660
H        0.2751025921   -0.5338218408    2.1177537455
$end

$rem
method                b3lyp
basis                 6-31+g(d,p)
unrestricted          true
symmetry              off
sym_ignore            true
incdft                false
incfock               0
scf_convergence       6
thresh                14
jobtype               sp
scf_guess             read
scf_algorithm         diis
max_scf_cycles        100
stability_analysis    true
max_cis_cycles        100
cis_n_roots           4
$end

--------------------------------------------------------------

             Standard Nuclear Orientation (Angstroms)
    I     Atom           X                Y                Z
 ----------------------------------------------------------------
    1      C       1.2521785188     0.2904034341     0.1752140049
    2      C       0.5899811805    -1.1243724622    -0.1734495836
    3      C      -0.7548097676    -0.9467461782    -0.7021208947
    4      C      -1.0475459933     0.2060051445     0.2555312202
    5      C      -0.4990821194     1.4379093787    -0.4536865988
    6      N       0.7838793682     1.4512654324    -0.5361386470
    7      H       2.3061313601     0.2446440891     0.4257634231
    8      H       1.2486217820    -1.9812572572    -0.2667342020
    9      H      -1.2131632232    -1.2149101780    -1.6503168362
   10      H      -2.0345117610     0.2826098306     0.7151071739
   11      H      -1.1150519513     2.1704455650    -0.9707923711
   12      C       0.2082700142    -0.2821749579     1.0638695660
   13      H       0.2751025921    -0.5338218408     2.1177537455
 ----------------------------------------------------------------

    2    -286.8593808221      1.08E-09 Convergence criterion met
 Total energy in the final basis set = -286.85938082

         TDDFT/TDA Excitation Energies
 ---------------------------------------------------

 Excited state   1: excitation energy (eV) =    3.5115
 Total energy for state  1:                  -286.73033402 au
    <S**2>     :  0.9743
    Trans. Mom.:  0.0139 X  -0.3831 Y   0.0472 Z
    Strength   :     0.0128321035
    S(  1) --> V(  1) amplitude =  0.8744 alpha
    D( 23) --> S(  1) amplitude =  0.4080 beta
    D( 24) --> S(  1) amplitude = -0.1616 beta

 Excited state   2: excitation energy (eV) =    3.5343
 Total energy for state  2:                  -286.72949757 au
    <S**2>     :  1.1744
    Trans. Mom.: -0.0493 X   0.0026 Y   0.0716 Z
    Strength   :     0.0006550254
    D( 24) --> V(  1) amplitude = -0.2368 alpha
    D( 23) --> S(  1) amplitude =  0.1519 beta
    D( 24) --> S(  1) amplitude =  0.9215 beta

 Excited state   3: excitation energy (eV) =    4.0930
 Total energy for state  3:                  -286.70896523 au
    <S**2>     :  0.8771
    Trans. Mom.:  0.1721 X   0.5203 Y   0.0585 Z
    Strength   :     0.0304632428
    S(  1) --> V(  1) amplitude = -0.4311 alpha
    D( 23) --> S(  1) amplitude =  0.8577 beta
    D( 23) --> V(  1) amplitude =  0.1544 beta

 Excited state   4: excitation energy (eV) =    4.4231
 Total energy for state  4:                  -286.69683549 au
    <S**2>     :  0.8128
    Trans. Mom.:  0.0262 X   0.1013 Y  -0.1139 Z
    Strength   :     0.0025936351
    S(  1) --> V(  2) amplitude =  0.9840 alpha

 ---------------------------------------------------

                    Orbital Energies (a.u.)
 --------------------------------------------------------------

 Alpha MOs
 -- Occupied --
-14.334 -10.234 -10.230 -10.220 -10.219 -10.218 -10.217  -0.979
 -0.866  -0.759  -0.674  -0.616  -0.580  -0.543  -0.525  -0.475
 -0.448  -0.415  -0.410  -0.366  -0.347  -0.308  -0.285  -0.267
 -0.192

 Beta MOs
 -- Occupied --
-14.333 -10.232 -10.230 -10.220 -10.219 -10.217 -10.205  -0.975
 -0.861  -0.752  -0.662  -0.611  -0.576  -0.536  -0.519  -0.470
 -0.443  -0.412  -0.404  -0.358  -0.342  -0.302  -0.274  -0.261

          Ground-State Mulliken Net Atomic Charges

     Atom                 Charge (a.u.)    Spin (a.u.)
  --------------------------------------------------------
      1 C                    -0.290041       0.110728
      2 C                    -0.050423      -0.155441
      3 C                    -0.155762       0.978457
      4 C                    -0.024580      -0.113272
      5 C                    -0.058225       0.053069
      6 N                    -0.169256       0.037674
      7 H                     0.144375       0.003073
      8 H                     0.139084       0.005432
      9 H                     0.129745      -0.020424
     10 H                     0.134605       0.024722
     11 H                     0.131444       0.000949
     12 C                    -0.063469       0.075017
     13 H                     0.132505       0.000018
  --------------------------------------------------------
  Sum of atomic charges =    -0.000000

                    Cartesian Multipole Moments
 -----------------------------------------------------------------
    Charge (ESU x 10^10)
                 0.0000
    Dipole Moment (Debye)
         X      -1.1673      Y      -1.5363      Z       1.1191
       Tot       2.2305
    Quadrupole Moments (Debye-Ang)
        XX     -39.2590     XY      -5.3603     YY     -44.8820
        XZ       2.6623     YZ       1.3262     ZZ     -40.9780

 Total job time:  191.39s(wall), 187.34s(cpu)
        *  Thank you very much for using Q-Chem.  Have a nice day.  *
