 Q-Chem 5.0, Q-Chem, Inc., Pleasanton, CA (2017)
 Q-Chem 5.0.2 for Intel X86 EM64T Linux

User input:
--------------------------------------------------------------
$molecule
0 2
C        1.3123784607    0.3056363587    0.2477164281
C        0.6118983208   -0.9997173330   -0.1765875210
C       -0.6818624658   -0.4706159523   -0.8476368617
C       -1.0814637460    0.1896641419    0.4443562748
C       -0.5215585606    1.0571232286   -0.6996129707
N        0.8252320260    1.4202971889   -0.4713984287
H        2.3476170808    0.2963434849    0.5677401874
H        1.1305173416   -1.9331386426   -0.3617493947
H       -1.2832341542   -0.9489927669   -1.6116467112
H       -2.0598661655    0.3296655997    0.8889198490
H       -1.1656267109    1.7402466902   -1.2405097431
C        0.2119917484   -0.3389683024    1.1157089676
H        0.3539768249   -0.6475436955    2.1446999240
$end

$rem
method                b3lyp
basis                 6-31+g(d,p)
unrestricted          true
symmetry              off
sym_ignore            true
incdft                false
incfock               0
scf_convergence       8
thresh                14
jobtype               sp
scf_guess             read
scf_algorithm         diis
max_scf_cycles        100
scf_final_print       1
$end

--------------------------------------------------------------

             Standard Nuclear Orientation (Angstroms)
    I     Atom           X                Y                Z
 ----------------------------------------------------------------
    1      C       1.3123784607     0.3056363587     0.2477164281
    2      C       0.6118983208    -0.9997173330    -0.1765875210
    3      C      -0.6818624658    -0.4706159523    -0.8476368617
    4      C      -1.0814637460     0.1896641419     0.4443562748
    5      C      -0.5215585606     1.0571232286    -0.6996129707
    6      N       0.8252320260     1.4202971889    -0.4713984287
    7      H       2.3476170808     0.2963434849     0.5677401874
    8      H       1.1305173416    -1.9331386426    -0.3617493947
    9      H      -1.2832341542    -0.9489927669    -1.6116467112
   10      H      -2.0598661655     0.3296655997     0.8889198490
   11      H      -1.1656267109     1.7402466902    -1.2405097431
   12      C       0.2119917484    -0.3389683024     1.1157089676
   13      H       0.3539768249    -0.6475436955     2.1446999240
 ----------------------------------------------------------------

    2    -286.8454155929      1.07E-09 Convergence criterion met
 Total energy in the final basis set = -286.84541559

                    Orbital Energies (a.u.)
 --------------------------------------------------------------

 Alpha MOs
 -- Occupied --
-14.349 -10.225 -10.225 -10.216 -10.216 -10.216 -10.216  -0.996
 -0.846  -0.802  -0.657  -0.597  -0.582  -0.549  -0.540  -0.462
 -0.435  -0.424  -0.405  -0.393  -0.346  -0.286  -0.283  -0.257
 -0.223

 Beta MOs
 -- Occupied --
-14.333 -10.226 -10.226 -10.215 -10.214 -10.214 -10.214  -0.986
 -0.822  -0.798  -0.652  -0.594  -0.577  -0.544  -0.536  -0.459
 -0.431  -0.400  -0.399  -0.387  -0.331  -0.278  -0.269  -0.253

          Ground-State Mulliken Net Atomic Charges

     Atom                 Charge (a.u.)    Spin (a.u.)
  --------------------------------------------------------
      1 C                    -0.287417      -0.080095
      2 C                    -0.040344       0.087084
      3 C                    -0.040845       0.089263
      4 C                    -0.037824       0.086577
      5 C                    -0.290877      -0.080206
      6 N                    -0.070369       0.814789
      7 H                     0.141415       0.001060
      8 H                     0.131798      -0.002094
      9 H                     0.131706      -0.002188
     10 H                     0.131972      -0.002075
     11 H                     0.141342       0.001072
     12 C                    -0.042088       0.089017
     13 H                     0.131531      -0.002204
  --------------------------------------------------------
  Sum of atomic charges =    -0.000000

                    Cartesian Multipole Moments
 -----------------------------------------------------------------
    Charge (ESU x 10^10)
                -0.0000
    Dipole Moment (Debye)
         X      -1.2323      Y      -2.1196      Z       0.7057
       Tot       2.5513
    Quadrupole Moments (Debye-Ang)
        XX     -38.8310     XY      -4.2865     YY     -44.9332
        XZ       2.6698     YZ       0.9845     ZZ     -40.1452

 Total job time:  3.45s(wall), 11.77s(cpu)
        *  Thank you very much for using Q-Chem.  Have a nice day.  *
