 Q-Chem 5.0, Q-Chem, Inc., Pleasanton, CA (2017)
 Q-Chem 5.0.2 for Intel X86 EM64T Linux

User input:
--------------------------------------------------------------
$molecule
0 2
C        1.3119832026    0.3024639842    0.2418450666
C        0.6067813895   -1.0007324541   -0.1827277502
C       -0.6879962090   -0.4652710104   -0.8442673523
C       -1.0782594737    0.1910344549    0.4506508298
C       -0.5191779217    1.0594042307   -0.6924931429
N        0.8290508102    1.4231658196   -0.4713972156
H        2.3485696173    0.2892655803    0.5603271077
H        1.1221951757   -1.9351789616   -0.3745474573
H       -1.2950975532   -0.9364177124   -1.6091722852
H       -2.0524462796    0.3360300536    0.9040256583
H       -1.1654104444    1.7420801816   -1.2331782202
C        0.2167898071   -0.3445443101    1.1121710373
H        0.3630178796   -0.6612998559    2.1387637239
****
C        1.5352298992    0.3455464336   -0.6174311162
C        1.1739543799   -0.9592461281   -0.3358050316
C       -0.0768555452   -1.4427270681    0.1897675599
C       -1.3056556612    0.7329186614    0.4109571775
C       -0.3749832816    1.6478911158   -0.0425738178
N        0.8920149141    1.5303482886   -0.5070899948
H        2.5466547899    0.4651951944   -1.0123050314
H        1.9324592649   -1.7113823214   -0.5388658439
H       -0.1454627912   -2.5190147030    0.3350271403
H       -2.2596542499    1.1495051515    0.7253365236
H       -0.7106204863    2.6872230759   -0.0313349639
C       -1.1696661591   -0.6977023088    0.5190041393
H       -2.0374150735   -1.2285553917    0.9053132591
$end

$rem
method                b3lyp
basis                 6-31g(d)
unrestricted          true
symmetry              off
sym_ignore            true
incdft                false
incfock               0
scf_convergence       8
thresh                14
jobtype               fsm
scf_guess             core
scf_guess_mix         5
scf_algorithm         diis
max_scf_cycles        100
fsm_nnode             21
fsm_ngrad             6
fsm_mode              2
fsm_opt_mode          2
$end

--------------------------------------------------------------

   20    -286.8249557164      5.82E-09 Convergence criterion met
 Total energy in the final basis set = -286.82495572
   23    -286.9243524798      4.68E-09 Convergence criterion met
 Total energy in the final basis set = -286.92435248
   21    -286.8136255924      4.19E-09 Convergence criterion met
 Total energy in the final basis set = -286.81362559
   21    -286.8173527068      3.53E-09 Convergence criterion met
 Total energy in the final basis set = -286.81735271
   23    -286.9183656417      4.42E-09 Convergence criterion met
 Total energy in the final basis set = -286.91836564
   22    -286.9194103985      6.71E-09 Convergence criterion met
 Total energy in the final basis set = -286.91941040
   21    -286.7974812593      2.35E-09 Convergence criterion met
 Total energy in the final basis set = -286.79748126
   20    -286.8030662380      5.40E-09 Convergence criterion met
 Total energy in the final basis set = -286.75448717
   23    -286.7552679045      7.99E-09 Convergence criterion met
 Total energy in the final basis set = -286.75526790
   23    -286.7545499704      8.64E-09 Convergence criterion met
 Total energy in the final basis set = -286.75454997
   23    -286.7552060692      8.01E-09 Convergence criterion met
 Total energy in the final basis set = -286.75520607
   23    -286.7546073161      8.58E-09 Convergence criterion met
 Total energy in the final basis set = -286.75460732
   23    -286.7551492139      7.99E-09 Convergence criterion met
 Total energy in the final basis set = -286.75514921
   23    -286.7546413836      8.52E-09 Convergence criterion met
 Total energy in the final basis set = -286.75464138
   23    -286.7551151971      7.99E-09 Convergence criterion met
 Total energy in the final basis set = -286.75511520

                    Orbital Energies (a.u.)
 --------------------------------------------------------------

 Alpha MOs
 -- Occupied --
-14.324 -10.234 -10.233 -10.214 -10.214 -10.213 -10.212  -0.962
 -0.846  -0.753  -0.651  -0.609  -0.605  -0.536  -0.497  -0.438
 -0.436  -0.420  -0.414  -0.368  -0.358  -0.278  -0.274  -0.240
 -0.136

 Beta MOs
 -- Occupied --
-14.322 -10.236 -10.235 -10.213 -10.213 -10.204 -10.202  -0.960
 -0.835  -0.754  -0.640  -0.604  -0.593  -0.532  -0.495  -0.437
 -0.424  -0.419  -0.411  -0.359  -0.354  -0.270  -0.268  -0.212

          Ground-State Mulliken Net Atomic Charges

     Atom                 Charge (a.u.)    Spin (a.u.)
  --------------------------------------------------------
      1 C                     0.061891      -0.129265
      2 C                    -0.211728      -0.013594
      3 C                    -0.133790       0.644123
      4 C                    -0.216548      -0.011619
      5 C                     0.068905      -0.135273
      6 N                    -0.333769       0.091608
      7 H                     0.153784       0.006662
      8 H                     0.151331       0.000039
      9 H                     0.144375      -0.028702
     10 H                     0.151178       0.000112
     11 H                     0.153472       0.006852
     12 C                    -0.134431       0.595215
     13 H                     0.145329      -0.026160
  --------------------------------------------------------
  Sum of atomic charges =    -0.000000

                    Cartesian Multipole Moments
 -----------------------------------------------------------------
    Charge (ESU x 10^10)
                -0.0000
    Dipole Moment (Debye)
         X      -0.9602      Y      -1.6501      Z       0.6009
       Tot       2.0015
    Quadrupole Moments (Debye-Ang)
        XX     -36.8646     XY      -4.3857     YY     -41.4192
        XZ      -0.3292     YZ       0.6729     ZZ     -42.7397

             Standard Nuclear Orientation (Angstroms)
    I     Atom           X                Y                Z
 ----------------------------------------------------------------
    1      C       1.4341324215     0.3666919357    -0.0324287985
    2      C       0.6929018324    -0.9209519475    -0.1798333392
    3      C      -0.6534666138    -0.7332082286    -0.7945973504
    4      C      -1.0671410255     0.2842143713     0.3618375996
    5      C      -0.4659660264     1.3184150133    -0.5331968688
    6      N       0.8488615327     1.4677461397    -0.4942864520
    7      H       2.4920377616     0.3695384636     0.1993523407
    8      H       1.3292338418    -1.7853267767    -0.3864786346
    9      H      -1.1914090100    -1.5899601504    -1.2034914773
   10      H      -2.0411975183     0.5635887281     0.7723751237
   11      H      -1.0887303428     2.0669522732    -1.0055608218
   12      C      -0.0298811269    -0.4414399998     1.1505214702
   13      H      -0.3078018038    -0.9965248137     2.0493374606
 ----------------------------------------------------------------

 Total job time:  1083.11s(wall), 3884.50s(cpu)
        *  Thank you very much for using Q-Chem.  Have a nice day.  *
