 Q-Chem 5.0, Q-Chem, Inc., Pleasanton, CA (2017)
 Q-Chem 5.0.2 for Intel X86 EM64T Linux

User input:
--------------------------------------------------------------
$molecule
0 2
C        1.2914289312    0.2883554586    0.2188096798
C        0.6185732303   -1.0280392335   -0.1884225647
C       -0.7075913348   -0.6187080615   -0.8026821528
C       -1.0712310400    0.1891352462    0.3870723877
C       -0.5161383866    1.2053608974   -0.6012146624
N        0.8031423456    1.4157166063   -0.5176431976
H        2.3308991287    0.2818804433    0.5259278281
H        1.1653707702   -1.9495745496   -0.3491213477
H       -1.2781603239   -1.0008219704   -1.6388113869
H       -2.0535200342    0.3118473936    0.8360054822
H       -1.1589882235    1.8273670822   -1.2135102705
C        0.2102770841   -0.3247908524    1.1059317368
H        0.3175117754   -0.6279934520    2.1412087204
$end

$rem
method                b3lyp
basis                 6-31+g(d,p)
unrestricted          true
symmetry              off
sym_ignore            true
incdft                false
incfock               0
scf_convergence       8
thresh                14
jobtype               rpath
scf_guess             core
scf_guess_mix         5
scf_algorithm         diis
max_scf_cycles        100
rpath_direction       1
rpath_tol_displacement 1000
rpath_max_cycles      50
geom_opt_max_cycles   300
geom_opt_hessian      read
$end

--------------------------------------------------------------

   22    -286.8367457227      6.27E-09 Convergence criterion met
 Total energy in the final basis set = -286.83674572
   22    -286.8383752252      6.41E-09 Convergence criterion met
 Total energy in the final basis set = -286.83837523
   22    -286.8383399783      8.01E-09 Convergence criterion met
 Total energy in the final basis set = -286.83833998
   22    -286.8383774995      6.59E-09 Convergence criterion met
 Total energy in the final basis set = -286.83837750
   22    -286.8418940946      2.90E-09 Convergence criterion met
 Total energy in the final basis set = -286.84189409
   22    -286.8417966425      6.44E-09 Convergence criterion met
 Total energy in the final basis set = -286.84179664
   22    -286.8419023396      2.90E-09 Convergence criterion met
 Total energy in the final basis set = -286.84190234
   22    -286.8445246597      3.90E-09 Convergence criterion met
 Total energy in the final basis set = -286.85914017
   21    -286.8593749580      4.69E-09 Convergence criterion met
 Total energy in the final basis set = -286.85937496
   21    -286.8593113896      6.17E-09 Convergence criterion met
 Total energy in the final basis set = -286.85931139
   21    -286.8593815521      4.72E-09 Convergence criterion met
 Total energy in the final basis set = -286.85938155
   20    -286.8512799294      6.30E-09 Convergence criterion met
 Total energy in the final basis set = -286.85127993
   21    -286.8593829660      4.67E-09 Convergence criterion met
 Total energy in the final basis set = -286.85938297
   21    -286.8593828167      4.72E-09 Convergence criterion met
 Total energy in the final basis set = -286.85938282
   21    -286.8593831398      4.69E-09 Convergence criterion met
 Total energy in the final basis set = -286.85938314

                    Orbital Energies (a.u.)
 --------------------------------------------------------------

 Alpha MOs
 -- Occupied --
-14.334 -10.234 -10.230 -10.220 -10.219 -10.218 -10.217  -0.979
 -0.867  -0.759  -0.674  -0.615  -0.580  -0.543  -0.525  -0.475
 -0.448  -0.415  -0.410  -0.366  -0.347  -0.308  -0.285  -0.267
 -0.192

 Beta MOs
 -- Occupied --
-14.333 -10.232 -10.230 -10.220 -10.219 -10.217 -10.205  -0.975
 -0.861  -0.752  -0.662  -0.611  -0.576  -0.536  -0.519  -0.470
 -0.443  -0.412  -0.404  -0.358  -0.342  -0.302  -0.274  -0.261

          Ground-State Mulliken Net Atomic Charges

     Atom                 Charge (a.u.)    Spin (a.u.)
  --------------------------------------------------------
      1 C                    -0.290130       0.110730
      2 C                    -0.050453      -0.155427
      3 C                    -0.155795       0.978635
      4 C                    -0.024513      -0.113313
      5 C                    -0.058026       0.052956
      6 N                    -0.169262       0.037634
      7 H                     0.144383       0.003073
      8 H                     0.139074       0.005438
      9 H                     0.129742      -0.020447
     10 H                     0.134595       0.024716
     11 H                     0.131406       0.000961
     12 C                    -0.063509       0.075015
     13 H                     0.132487       0.000030
  --------------------------------------------------------
  Sum of atomic charges =    -0.000000

                    Cartesian Multipole Moments
 -----------------------------------------------------------------
    Charge (ESU x 10^10)
                 0.0000
    Dipole Moment (Debye)
         X      -1.1669      Y      -1.5333      Z       1.1231
       Tot       2.2303
    Quadrupole Moments (Debye-Ang)
        XX     -39.2552     XY      -5.3500     YY     -44.8623
        XZ       2.6750     YZ       1.3438     ZZ     -41.0020

             Standard Nuclear Orientation (Angstroms)
    I     Atom           X                Y                Z
 ----------------------------------------------------------------
    1      C       1.2914289312     0.2883554586     0.2188096798
    2      C       0.6185732303    -1.0280392335    -0.1884225647
    3      C      -0.7075913348    -0.6187080615    -0.8026821528
    4      C      -1.0712310400     0.1891352462     0.3870723877
    5      C      -0.5161383866     1.2053608974    -0.6012146624
    6      N       0.8031423456     1.4157166063    -0.5176431976
    7      H       2.3308991287     0.2818804433     0.5259278281
    8      H       1.1653707702    -1.9495745496    -0.3491213477
    9      H      -1.2781603239    -1.0008219704    -1.6388113869
   10      H      -2.0535200342     0.3118473936     0.8360054822
   11      H      -1.1589882235     1.8273670822    -1.2135102705
   12      C       0.2102770841    -0.3247908524     1.1059317368
   13      H       0.3175117754    -0.6279934520     2.1412087204
 ----------------------------------------------------------------

 Total job time:  5096.81s(wall), 19331.06s(cpu)
        *  Thank you very much for using Q-Chem.  Have a nice day.  *
