 Q-Chem 5.0, Q-Chem, Inc., Pleasanton, CA (2017)
 Q-Chem 5.0.2 for Intel X86 EM64T Linux

User input:
--------------------------------------------------------------
$molecule
0 2
C        1.5348642784    0.3456500851   -0.6179040600
C        1.1737607234   -0.9591985572   -0.3362297236
C       -0.0771302035   -1.4426645606    0.1892855113
C       -1.3053709349    0.7328232315    0.4113220772
C       -0.3748333053    1.6477135252   -0.0419390194
N        0.8918951021    1.5302174533   -0.5068801945
H        2.5464116681    0.4648680033   -1.0124057567
H        1.9328936696   -1.7109568903   -0.5384422558
H       -0.1450774496   -2.5187971166    0.3362074361
H       -2.2591542260    1.1498718485    0.7256742459
H       -0.7106593325    2.6868701717   -0.0314869532
C       -1.1699021564   -0.6977770935    0.5183381078
H       -2.0376978333   -1.2286201003    0.9044605850
$end

$rem
method                b3lyp
basis                 6-31g(d)
unrestricted          true
symmetry              off
sym_ignore            true
incdft                false
incfock               0
scf_convergence       8
thresh                14
jobtype               opt
scf_guess             core
scf_guess_mix         5
scf_algorithm         diis
max_scf_cycles        100
geom_opt_max_cycles   300
$end

--------------------------------------------------------------

   23    -286.9243518356      3.05E-09 Convergence criterion met
 Total energy in the final basis set = -286.92435184

             Standard Nuclear Orientation (Angstroms)
    I     Atom           X                Y                Z
 ----------------------------------------------------------------
    1      C       1.5352298992     0.3455464336    -0.6174311162
    2      C       1.1739543799    -0.9592461281    -0.3358050316
    3      C      -0.0768555452    -1.4427270681     0.1897675599
    4      C      -1.3056556612     0.7329186614     0.4109571775
    5      C      -0.3749832816     1.6478911158    -0.0425738178
    6      N       0.8920149141     1.5303482886    -0.5070899948
    7      H       2.5466547899     0.4651951944    -1.0123050314
    8      H       1.9324592649    -1.7113823214    -0.5388658439
    9      H      -0.1454627912    -2.5190147030     0.3350271403
   10      H      -2.2596542499     1.1495051515     0.7253365236
   11      H      -0.7106204863     2.6872230759    -0.0313349639
   12      C      -1.1696661591    -0.6977023088     0.5190041393
   13      H      -2.0374150735    -1.2285553917     0.9053132591
 ----------------------------------------------------------------

   18    -286.9243524739      2.95E-09 Convergence criterion met
 Total energy in the final basis set = -286.92435247
 Final energy is   -286.924352473895
 **  OPTIMIZATION CONVERGED  **

                    Orbital Energies (a.u.)
 --------------------------------------------------------------

 Alpha MOs
 -- Occupied --
-14.322 -10.232 -10.232 -10.212 -10.211 -10.201 -10.200  -0.922
 -0.818  -0.784  -0.693  -0.667  -0.551  -0.537  -0.518  -0.449
 -0.439  -0.414  -0.394  -0.386  -0.349  -0.322  -0.299  -0.251
 -0.162

 Beta MOs
 -- Occupied --
-14.314 -10.234 -10.233 -10.210 -10.210 -10.196 -10.196  -0.911
 -0.809  -0.777  -0.681  -0.665  -0.546  -0.535  -0.514  -0.447
 -0.438  -0.411  -0.383  -0.373  -0.348  -0.295  -0.276  -0.241

          Ground-State Mulliken Net Atomic Charges

     Atom                 Charge (a.u.)    Spin (a.u.)
  --------------------------------------------------------
      1 C                     0.036230      -0.115090
      2 C                    -0.132051       0.351160
      3 C                    -0.110659       0.088444
      4 C                    -0.130807       0.342750
      5 C                     0.034751      -0.110080
      6 N                    -0.423331       0.386893
      7 H                     0.142567       0.003524
      8 H                     0.134300      -0.018527
      9 H                     0.141988      -0.006383
     10 H                     0.134390      -0.018138
     11 H                     0.142674       0.003276
     12 C                    -0.111969       0.099062
     13 H                     0.141916      -0.006891
  --------------------------------------------------------
  Sum of atomic charges =     0.000000

                    Cartesian Multipole Moments
 -----------------------------------------------------------------
    Charge (ESU x 10^10)
                 0.0000
    Dipole Moment (Debye)
         X      -1.0855      Y      -1.8640      Z       0.6168
       Tot       2.2435
    Quadrupole Moments (Debye-Ang)
        XX     -37.2932     XY      -3.5755     YY     -39.9507
        XZ      -1.8926     YZ       0.9718     ZZ     -42.7548

 Total job time:  30.82s(wall), 112.55s(cpu)
        *  Thank you very much for using Q-Chem.  Have a nice day.  *
