 Q-Chem 5.0, Q-Chem, Inc., Pleasanton, CA (2017)
 Q-Chem 5.0.2 for Intel X86 EM64T Linux

User input:
--------------------------------------------------------------
$molecule
0 2
C        1.4341324215    0.3666919357   -0.0324287985
C        0.6929018324   -0.9209519475   -0.1798333392
C       -0.6534666138   -0.7332082286   -0.7945973504
C       -1.0671410255    0.2842143713    0.3618375996
C       -0.4659660264    1.3184150133   -0.5331968688
N        0.8488615327    1.4677461397   -0.4942864520
H        2.4920377616    0.3695384636    0.1993523407
H        1.3292338418   -1.7853267767   -0.3864786346
H       -1.1914090100   -1.5899601504   -1.2034914773
H       -2.0411975183    0.5635887281    0.7723751237
H       -1.0887303428    2.0669522732   -1.0055608218
C       -0.0298811269   -0.4414399998    1.1505214702
H       -0.3078018038   -0.9965248137    2.0493374606
$end

$rem
method                b3lyp
basis                 6-31g(d)
unrestricted          true
symmetry              off
sym_ignore            true
incdft                false
incfock               0
scf_convergence       6
thresh                14
jobtype               sp
scf_guess             read
scf_algorithm         diis
max_scf_cycles        100
stability_analysis    true
max_cis_cycles        100
cis_n_roots           4
$end

--------------------------------------------------------------

             Standard Nuclear Orientation (Angstroms)
    I     Atom           X                Y                Z
 ----------------------------------------------------------------
    1      C       1.4341324215     0.3666919357    -0.0324287985
    2      C       0.6929018324    -0.9209519475    -0.1798333392
    3      C      -0.6534666138    -0.7332082286    -0.7945973504
    4      C      -1.0671410255     0.2842143713     0.3618375996
    5      C      -0.4659660264     1.3184150133    -0.5331968688
    6      N       0.8488615327     1.4677461397    -0.4942864520
    7      H       2.4920377616     0.3695384636     0.1993523407
    8      H       1.3292338418    -1.7853267767    -0.3864786346
    9      H      -1.1914090100    -1.5899601504    -1.2034914773
   10      H      -2.0411975183     0.5635887281     0.7723751237
   11      H      -1.0887303428     2.0669522732    -1.0055608218
   12      C      -0.0298811269    -0.4414399998     1.1505214702
   13      H      -0.3078018038    -0.9965248137     2.0493374606
 ----------------------------------------------------------------

    2    -286.7712868817      4.48E-09 Convergence criterion met
 Total energy in the final basis set = -286.77128688

         TDDFT/TDA Excitation Energies
 ---------------------------------------------------

 Excited state   1: excitation energy (eV) =    1.7676
 Total energy for state  1:                  -286.70632891 au
    <S**2>     :  0.7685
    Trans. Mom.:  0.0311 X  -0.0642 Y  -0.1844 Z
    Strength   :     0.0016921123
    S(  1) --> V(  1) amplitude =  0.9648 alpha
    D( 24) --> S(  1) amplitude =  0.2345 beta

 Excited state   2: excitation energy (eV) =    3.3358
 Total energy for state  2:                  -286.64869741 au
    <S**2>     :  2.4291
    Trans. Mom.:  0.0362 X   0.0887 Y  -0.0539 Z
    Strength   :     0.0009872845
    D( 24) --> V(  1) amplitude =  0.5456 alpha
    S(  1) --> V(  2) amplitude =  0.2727 alpha
    D( 24) --> V(  1) amplitude =  0.7747 beta

 Excited state   3: excitation energy (eV) =    3.7414
 Total energy for state  3:                  -286.63379427 au
    <S**2>     :  0.8129
    Trans. Mom.:  0.3258 X   0.0268 Y   0.6071 Z
    Strength   :     0.0435797914
    D( 22) --> V(  1) amplitude = -0.1897 alpha
    S(  1) --> V(  1) amplitude = -0.2085 alpha
    D( 24) --> S(  1) amplitude =  0.9226 beta

 Excited state   4: excitation energy (eV) =    4.3083
 Total energy for state  4:                  -286.61295833 au
    <S**2>     :  1.1231
    Trans. Mom.: -0.0243 X   0.0114 Y  -0.0328 Z
    Strength   :     0.0001896924
    D( 24) --> V(  1) amplitude = -0.4024 alpha
    S(  1) --> V(  2) amplitude =  0.8317 alpha
    D( 22) --> V(  1) amplitude =  0.1567 beta
    D( 23) --> S(  1) amplitude = -0.2749 beta

 ---------------------------------------------------

                    Orbital Energies (a.u.)
 --------------------------------------------------------------

 Alpha MOs
 -- Occupied --
-14.322 -10.234 -10.233 -10.212 -10.211 -10.211 -10.211  -0.965
 -0.847  -0.752  -0.652  -0.609  -0.604  -0.537  -0.498  -0.439
 -0.439  -0.420  -0.413  -0.372  -0.353  -0.275  -0.274  -0.242
 -0.150

 Beta MOs
 -- Occupied --
-14.319 -10.236 -10.235 -10.211 -10.211 -10.203 -10.201  -0.962
 -0.837  -0.753  -0.638  -0.600  -0.599  -0.533  -0.495  -0.438
 -0.427  -0.419  -0.409  -0.364  -0.349  -0.269  -0.267  -0.214

          Ground-State Mulliken Net Atomic Charges

     Atom                 Charge (a.u.)    Spin (a.u.)
  --------------------------------------------------------
      1 C                     0.055407      -0.123234
      2 C                    -0.208750      -0.019999
      3 C                    -0.127943       0.641239
      4 C                    -0.214982      -0.017813
      5 C                     0.064001      -0.130354
      6 N                    -0.333470       0.115143
      7 H                     0.154161       0.006158
      8 H                     0.148291       0.000083
      9 H                     0.144871      -0.028025
     10 H                     0.147941       0.000191
     11 H                     0.153693       0.006369
     12 C                    -0.129058       0.575210
     13 H                     0.145838      -0.024968
  --------------------------------------------------------
  Sum of atomic charges =    -0.000000

                    Cartesian Multipole Moments
 -----------------------------------------------------------------
    Charge (ESU x 10^10)
                -0.0000
    Dipole Moment (Debye)
         X      -1.0295      Y      -1.7634      Z       0.6426
       Tot       2.1406
    Quadrupole Moments (Debye-Ang)
        XX     -37.0217     XY      -4.1344     YY     -41.6141
        XZ       0.1973     YZ       0.4683     ZZ     -42.4432

 Total job time:  89.95s(wall), 87.57s(cpu)
        *  Thank you very much for using Q-Chem.  Have a nice day.  *
