 Q-Chem 5.0, Q-Chem, Inc., Pleasanton, CA (2017)
 Q-Chem 5.0.2 for Intel X86 EM64T Linux

User input:
--------------------------------------------------------------
$molecule
0 2
C        1.2891059348    0.2902233781    0.2171687822
C        0.6169520258   -1.0283042309   -0.1872368568
C       -0.7078849638   -0.6204267597   -0.8018026740
C       -1.0706866190    0.1885777320    0.3862680841
C       -0.5129302034    1.2071141481   -0.5977994516
N        0.8045370071    1.4181007001   -0.5208384370
H        2.3292790409    0.2823668913    0.5252812428
H        1.1654483794   -1.9498376501   -0.3466047151
H       -1.2781424256   -1.0010675403   -1.6392846551
H       -2.0536990017    0.3106886832    0.8357846833
H       -1.1578611197    1.8268520106   -1.2119270956
C        0.2102159086   -0.3253840127    1.1043579618
H        0.3172399590   -0.6291683415    2.1401833832
$end

$rem
method                b3lyp
basis                 6-31+g(d,p)
unrestricted          true
symmetry              off
sym_ignore            true
incdft                false
incfock               0
scf_convergence       8
thresh                14
jobtype               ts
scf_guess             read
scf_algorithm         diis
max_scf_cycles        100
geom_opt_max_cycles   500
geom_opt_dmax         100
geom_opt_tol_gradient 10
geom_opt_hessian      read
$end

--------------------------------------------------------------

    2    -286.8367193833      6.89E-10 Convergence criterion met
 Total energy in the final basis set = -286.83671938
   12    -286.8367457203      4.71E-09 Convergence criterion met
 Total energy in the final basis set = -286.83674572

             Standard Nuclear Orientation (Angstroms)
    I     Atom           X                Y                Z
 ----------------------------------------------------------------
    1      C       1.2914289312     0.2883554586     0.2188096798
    2      C       0.6185732303    -1.0280392335    -0.1884225647
    3      C      -0.7075913348    -0.6187080615    -0.8026821528
    4      C      -1.0712310400     0.1891352462     0.3870723877
    5      C      -0.5161383866     1.2053608974    -0.6012146624
    6      N       0.8031423456     1.4157166063    -0.5176431976
    7      H       2.3308991287     0.2818804433     0.5259278281
    8      H       1.1653707702    -1.9495745496    -0.3491213477
    9      H      -1.2781603239    -1.0008219704    -1.6388113869
   10      H      -2.0535200342     0.3118473936     0.8360054822
   11      H      -1.1589882235     1.8273670822    -1.2135102705
   12      C       0.2102770841    -0.3247908524     1.1059317368
   13      H       0.3175117754    -0.6279934520     2.1412087204
 ----------------------------------------------------------------

    8    -286.8367457227      3.31E-09 Convergence criterion met
 Total energy in the final basis set = -286.83674572
 Final energy is   -286.836745722664
 **  OPTIMIZATION CONVERGED  **

                    Orbital Energies (a.u.)
 --------------------------------------------------------------

 Alpha MOs
 -- Occupied --
-14.336 -10.230 -10.230 -10.225 -10.221 -10.216 -10.214  -0.990
 -0.853  -0.786  -0.664  -0.603  -0.582  -0.549  -0.537  -0.456
 -0.451  -0.418  -0.414  -0.387  -0.350  -0.293  -0.278  -0.256
 -0.202

 Beta MOs
 -- Occupied --
-14.325 -10.232 -10.226 -10.222 -10.220 -10.215 -10.214  -0.980
 -0.837  -0.781  -0.654  -0.601  -0.577  -0.543  -0.532  -0.453
 -0.445  -0.411  -0.403  -0.378  -0.338  -0.287  -0.265  -0.241

          Ground-State Mulliken Net Atomic Charges

     Atom                 Charge (a.u.)    Spin (a.u.)
  --------------------------------------------------------
      1 C                    -0.274934      -0.019335
      2 C                    -0.022939      -0.032056
      3 C                    -0.139771       0.561110
      4 C                     0.043114      -0.025561
      5 C                    -0.238752      -0.147435
      6 N                    -0.111635       0.576314
      7 H                     0.140779       0.000734
      8 H                     0.134548      -0.000694
      9 H                     0.140715      -0.023166
     10 H                     0.130716       0.012035
     11 H                     0.141064       0.003600
     12 C                    -0.073440       0.098952
     13 H                     0.130536      -0.004498
  --------------------------------------------------------
  Sum of atomic charges =     0.000000

                    Cartesian Multipole Moments
 -----------------------------------------------------------------
    Charge (ESU x 10^10)
                 0.0000
    Dipole Moment (Debye)
         X      -1.5589      Y      -2.1447      Z       0.8836
       Tot       2.7948
    Quadrupole Moments (Debye-Ang)
        XX     -38.7534     XY      -4.5024     YY     -45.0112
        XZ       2.9675     YZ       1.3734     ZZ     -40.5506

 Total job time:  45.83s(wall), 168.59s(cpu)
        *  Thank you very much for using Q-Chem.  Have a nice day.  *
