 Q-Chem 5.0, Q-Chem, Inc., Pleasanton, CA (2017)
 Q-Chem 5.0.2 for Intel X86 EM64T Linux

User input:
--------------------------------------------------------------
$molecule
0 2
C        1.4341324215    0.3666919357   -0.0324287985
C        0.6929018324   -0.9209519475   -0.1798333392
C       -0.6534666138   -0.7332082286   -0.7945973504
C       -1.0671410255    0.2842143713    0.3618375996
C       -0.4659660264    1.3184150133   -0.5331968688
N        0.8488615327    1.4677461397   -0.4942864520
H        2.4920377616    0.3695384636    0.1993523407
H        1.3292338418   -1.7853267767   -0.3864786346
H       -1.1914090100   -1.5899601504   -1.2034914773
H       -2.0411975183    0.5635887281    0.7723751237
H       -1.0887303428    2.0669522732   -1.0055608218
C       -0.0298811269   -0.4414399998    1.1505214702
H       -0.3078018038   -0.9965248137    2.0493374606
$end

$rem
method                b3lyp
basis                 6-31g(d)
unrestricted          true
symmetry              off
sym_ignore            true
incdft                false
incfock               0
scf_convergence       8
thresh                14
jobtype               freq
scf_guess             read
scf_algorithm         diis
max_scf_cycles        100
$end

--------------------------------------------------------------

             Standard Nuclear Orientation (Angstroms)
    I     Atom           X                Y                Z
 ----------------------------------------------------------------
    1      C       1.4341324215     0.3666919357    -0.0324287985
    2      C       0.6929018324    -0.9209519475    -0.1798333392
    3      C      -0.6534666138    -0.7332082286    -0.7945973504
    4      C      -1.0671410255     0.2842143713     0.3618375996
    5      C      -0.4659660264     1.3184150133    -0.5331968688
    6      N       0.8488615327     1.4677461397    -0.4942864520
    7      H       2.4920377616     0.3695384636     0.1993523407
    8      H       1.3292338418    -1.7853267767    -0.3864786346
    9      H      -1.1914090100    -1.5899601504    -1.2034914773
   10      H      -2.0411975183     0.5635887281     0.7723751237
   11      H      -1.0887303428     2.0669522732    -1.0055608218
   12      C      -0.0298811269    -0.4414399998     1.1505214702
   13      H      -0.3078018038    -0.9965248137     2.0493374606
 ----------------------------------------------------------------

    2    -286.7712868818      1.40E-09 Convergence criterion met
 Total energy in the final basis set = -286.77128688

                    Orbital Energies (a.u.)
 --------------------------------------------------------------

 Alpha MOs
 -- Occupied --
-14.322 -10.234 -10.233 -10.212 -10.211 -10.211 -10.211  -0.965
 -0.847  -0.752  -0.652  -0.609  -0.604  -0.537  -0.498  -0.439
 -0.439  -0.420  -0.413  -0.372  -0.353  -0.275  -0.274  -0.242
 -0.150

 Beta MOs
 -- Occupied --
-14.319 -10.236 -10.235 -10.211 -10.211 -10.203 -10.201  -0.962
 -0.837  -0.753  -0.638  -0.600  -0.599  -0.533  -0.495  -0.438
 -0.427  -0.419  -0.409  -0.364  -0.349  -0.269  -0.267  -0.214

          Ground-State Mulliken Net Atomic Charges

     Atom                 Charge (a.u.)    Spin (a.u.)
  --------------------------------------------------------
      1 C                     0.055407      -0.123233
      2 C                    -0.208750      -0.020000
      3 C                    -0.127943       0.641239
      4 C                    -0.214982      -0.017813
      5 C                     0.064001      -0.130353
      6 N                    -0.333470       0.115143
      7 H                     0.154161       0.006158
      8 H                     0.148291       0.000083
      9 H                     0.144871      -0.028025
     10 H                     0.147941       0.000191
     11 H                     0.153693       0.006369
     12 C                    -0.129058       0.575210
     13 H                     0.145838      -0.024968
  --------------------------------------------------------
  Sum of atomic charges =    -0.000000

                    Cartesian Multipole Moments
 -----------------------------------------------------------------
    Charge (ESU x 10^10)
                -0.0000
    Dipole Moment (Debye)
         X      -1.0295      Y      -1.7634      Z       0.6426
       Tot       2.1406
    Quadrupole Moments (Debye-Ang)
        XX     -37.0217     XY      -4.1344     YY     -41.6141
        XZ       0.1973     YZ       0.4683     ZZ     -42.4432

 Frequency:      -691.63                 166.71                 326.44
 Force Cnst:      1.0788                 0.0423                 0.1919
 Red. Mass:       3.8278                 2.5862                 3.0559
 IR Intens:       33.040                 31.494                 58.973
 Frequency:       454.16                 541.64                 623.06
 Force Cnst:      0.1767                 0.4531                 1.1373
 Red. Mass:       1.4540                 2.6216                 4.9722
 IR Intens:        0.879                  8.423                  0.178
 Frequency:       660.53                 733.61                 745.72
 Force Cnst:      0.6382                 1.2557                 1.5720
 Red. Mass:       2.4827                 3.9602                 4.7978
 IR Intens:        7.801                  1.862                  3.823
 Frequency:       757.37                 815.90                 854.25
 Force Cnst:      1.0157                 0.4350                 0.6492
 Red. Mass:       3.0054                 1.1090                 1.5100
 IR Intens:        1.105                 39.980                  0.532
 Frequency:       907.45                 921.84                1016.05
 Force Cnst:      1.6808                 0.9955                 1.0488
 Red. Mass:       3.4642                 1.9883                 1.7242
 IR Intens:       72.324                  2.544                  4.380
 Frequency:      1021.10                1033.85                1085.81
 Force Cnst:      0.7972                 2.5906                 1.1252
 Red. Mass:       1.2977                 4.1138                 1.6198
 IR Intens:        0.434                  1.118                 19.330
 Frequency:      1089.54                1173.09                1214.91
 Force Cnst:      0.9231                 1.1237                 1.4792
 Red. Mass:       1.3198                 1.3860                 1.7009
 IR Intens:        8.778                  3.695                  5.451
 Frequency:      1239.43                1302.12                1324.40
 Force Cnst:      1.4452                 2.0780                 1.9972
 Red. Mass:       1.5968                 2.0801                 1.9326
 IR Intens:        0.926                 13.765                 18.685
 Frequency:      1340.51                1470.23                1489.08
 Force Cnst:      1.5928                 3.5694                 6.8524
 Red. Mass:       1.5044                 2.8027                 5.2451
 IR Intens:       10.931                 15.339                 11.485
 Frequency:      3123.42                3129.23                3152.71
 Force Cnst:      6.2602                 6.2836                 6.3888
 Red. Mass:       1.0891                 1.0891                 1.0909
 IR Intens:        6.012                 28.754                  6.288
 Frequency:      3165.74                3245.40                3252.18
 Force Cnst:      6.4542                 6.7767                 6.8110
 Red. Mass:       1.0931                 1.0920                 1.0930
 IR Intens:        5.198                 11.921                  8.063

 STANDARD THERMODYNAMIC QUANTITIES AT   298.15 K  AND     1.00 ATM

   This Molecule has  1 Imaginary Frequencies
   Zero point vibrational energy:       62.011 kcal/mol

   Atom    1 Element C  Has Mass   12.00000
   Atom    2 Element C  Has Mass   12.00000
   Atom    3 Element C  Has Mass   12.00000
   Atom    4 Element C  Has Mass   12.00000
   Atom    5 Element C  Has Mass   12.00000
   Atom    6 Element N  Has Mass   14.00307
   Atom    7 Element H  Has Mass    1.00783
   Atom    8 Element H  Has Mass    1.00783
   Atom    9 Element H  Has Mass    1.00783
   Atom   10 Element H  Has Mass    1.00783
   Atom   11 Element H  Has Mass    1.00783
   Atom   12 Element C  Has Mass   12.00000
   Atom   13 Element H  Has Mass    1.00783
   Molecular Mass:    92.050050 amu
   Principal axes and moments of inertia in amu*Bohr^2:
                             1           2           3
    Eigenvalues --      381.84983   441.52877   574.96363
          X               0.46894     0.88307     0.01705
          Y               0.84136    -0.45250     0.29555
          Z              -0.26870     0.12424     0.95518
   Rotational Symmetry Number is   1
   The Molecule is an Asymmetric Top
   Translational Enthalpy:        0.889 kcal/mol
   Rotational Enthalpy:           0.889 kcal/mol
   Vibrational Enthalpy:         63.584 kcal/mol
   gas constant (RT):             0.592 kcal/mol
   Translational Entropy:        39.471  cal/mol.K
   Rotational Entropy:           26.075  cal/mol.K
   Vibrational Entropy:           7.866  cal/mol.K

   Total Enthalpy:               65.954 kcal/mol
   Total Entropy:                73.411  cal/mol.K

 Total job time:  265.31s(wall), 261.74s(cpu)
        *  Thank you very much for using Q-Chem.  Have a nice day.  *
