 Q-Chem 5.0, Q-Chem, Inc., Pleasanton, CA (2017)
 Q-Chem 5.0.2 for Intel X86 EM64T Linux

User input:
--------------------------------------------------------------
$molecule
0 2
C        1.2914289312    0.2883554586    0.2188096798
C        0.6185732303   -1.0280392335   -0.1884225647
C       -0.7075913348   -0.6187080615   -0.8026821528
C       -1.0712310400    0.1891352462    0.3870723877
C       -0.5161383866    1.2053608974   -0.6012146624
N        0.8031423456    1.4157166063   -0.5176431976
H        2.3308991287    0.2818804433    0.5259278281
H        1.1653707702   -1.9495745496   -0.3491213477
H       -1.2781603239   -1.0008219704   -1.6388113869
H       -2.0535200342    0.3118473936    0.8360054822
H       -1.1589882235    1.8273670822   -1.2135102705
C        0.2102770841   -0.3247908524    1.1059317368
H        0.3175117754   -0.6279934520    2.1412087204
$end

$rem
method                b3lyp
basis                 6-31+g(d,p)
unrestricted          true
symmetry              off
sym_ignore            true
incdft                false
incfock               0
scf_convergence       8
thresh                14
jobtype               freq
scf_guess             read
scf_algorithm         diis
max_scf_cycles        100
$end

--------------------------------------------------------------

             Standard Nuclear Orientation (Angstroms)
    I     Atom           X                Y                Z
 ----------------------------------------------------------------
    1      C       1.2914289312     0.2883554586     0.2188096798
    2      C       0.6185732303    -1.0280392335    -0.1884225647
    3      C      -0.7075913348    -0.6187080615    -0.8026821528
    4      C      -1.0712310400     0.1891352462     0.3870723877
    5      C      -0.5161383866     1.2053608974    -0.6012146624
    6      N       0.8031423456     1.4157166063    -0.5176431976
    7      H       2.3308991287     0.2818804433     0.5259278281
    8      H       1.1653707702    -1.9495745496    -0.3491213477
    9      H      -1.2781603239    -1.0008219704    -1.6388113869
   10      H      -2.0535200342     0.3118473936     0.8360054822
   11      H      -1.1589882235     1.8273670822    -1.2135102705
   12      C       0.2102770841    -0.3247908524     1.1059317368
   13      H       0.3175117754    -0.6279934520     2.1412087204
 ----------------------------------------------------------------

    2    -286.8367457226      3.90E-10 Convergence criterion met
 Total energy in the final basis set = -286.83674572

                    Orbital Energies (a.u.)
 --------------------------------------------------------------

 Alpha MOs
 -- Occupied --
-14.336 -10.230 -10.230 -10.225 -10.221 -10.216 -10.214  -0.990
 -0.853  -0.786  -0.664  -0.603  -0.582  -0.549  -0.537  -0.456
 -0.451  -0.418  -0.414  -0.387  -0.350  -0.293  -0.278  -0.256
 -0.202

 Beta MOs
 -- Occupied --
-14.325 -10.232 -10.226 -10.222 -10.220 -10.215 -10.214  -0.980
 -0.837  -0.781  -0.654  -0.601  -0.577  -0.543  -0.532  -0.453
 -0.445  -0.411  -0.403  -0.378  -0.338  -0.287  -0.265  -0.241

          Ground-State Mulliken Net Atomic Charges

     Atom                 Charge (a.u.)    Spin (a.u.)
  --------------------------------------------------------
      1 C                    -0.274934      -0.019335
      2 C                    -0.022939      -0.032056
      3 C                    -0.139772       0.561109
      4 C                     0.043114      -0.025561
      5 C                    -0.238752      -0.147435
      6 N                    -0.111635       0.576315
      7 H                     0.140779       0.000734
      8 H                     0.134548      -0.000694
      9 H                     0.140715      -0.023166
     10 H                     0.130716       0.012035
     11 H                     0.141064       0.003600
     12 C                    -0.073440       0.098952
     13 H                     0.130536      -0.004498
  --------------------------------------------------------
  Sum of atomic charges =     0.000000

                    Cartesian Multipole Moments
 -----------------------------------------------------------------
    Charge (ESU x 10^10)
                 0.0000
    Dipole Moment (Debye)
         X      -1.5589      Y      -2.1447      Z       0.8836
       Tot       2.7948
    Quadrupole Moments (Debye-Ang)
        XX     -38.7534     XY      -4.5024     YY     -45.0112
        XZ       2.9675     YZ       1.3734     ZZ     -40.5506

 Frequency:      -621.56                 469.64                 562.56
 Force Cnst:      2.0409                 0.5000                 0.5572
 Red. Mass:       8.9664                 3.8477                 2.9885
 IR Intens:        5.778                  3.757                  3.623
 Frequency:       608.39                 707.85                 728.80
 Force Cnst:      0.2899                 2.2064                 0.6106
 Red. Mass:       1.3295                 7.4739                 1.9511
 IR Intens:       15.060                  0.923                 11.563
 Frequency:       760.47                 787.81                 802.05
 Force Cnst:      1.6340                 1.1364                 1.0075
 Red. Mass:       4.7954                 3.1075                 2.6583
 IR Intens:       11.269                 17.826                  6.602
 Frequency:       843.14                 877.94                 902.14
 Force Cnst:      0.7886                 0.6827                 0.7505
 Red. Mass:       1.8828                 1.5033                 1.5652
 IR Intens:        6.596                 27.388                 17.554
 Frequency:       921.27                 967.43                 972.71
 Force Cnst:      0.8187                 0.9768                 0.8419
 Red. Mass:       1.6372                 1.7715                 1.5102
 IR Intens:        0.334                  2.540                  2.813
 Frequency:       998.82                1042.59                1045.83
 Force Cnst:      0.9919                 0.8700                 2.0701
 Red. Mass:       1.6876                 1.3584                 3.2123
 IR Intens:        1.906                  2.240                  2.378
 Frequency:      1061.32                1135.10                1204.88
 Force Cnst:      1.1308                 1.7267                 1.1464
 Red. Mass:       1.7039                 2.2746                 1.3402
 IR Intens:        5.846                  0.260                  0.310
 Frequency:      1233.42                1242.45                1284.57
 Force Cnst:      2.6907                 1.2354                 2.0416
 Red. Mass:       3.0018                 1.3583                 2.0999
 IR Intens:        7.595                  1.831                 13.693
 Frequency:      1294.91                1336.16                1382.68
 Force Cnst:      2.3264                 2.4741                 2.6371
 Red. Mass:       2.3548                 2.3521                 2.3412
 IR Intens:        2.819                  6.263                  0.468
 Frequency:      3169.15                3205.83                3212.20
 Force Cnst:      6.4637                 6.6121                 6.6321
 Red. Mass:       1.0923                 1.0920                 1.0909
 IR Intens:       14.062                 11.836                  5.795
 Frequency:      3222.15                3225.65                3247.89
 Force Cnst:      6.6988                 6.7068                 6.8179
 Red. Mass:       1.0951                 1.0940                 1.0970
 IR Intens:       23.224                  1.351                  3.837

 STANDARD THERMODYNAMIC QUANTITIES AT   298.15 K  AND     1.00 ATM

   This Molecule has  1 Imaginary Frequencies
   Zero point vibrational energy:       63.556 kcal/mol

   Atom    1 Element C  Has Mass   12.00000
   Atom    2 Element C  Has Mass   12.00000
   Atom    3 Element C  Has Mass   12.00000
   Atom    4 Element C  Has Mass   12.00000
   Atom    5 Element C  Has Mass   12.00000
   Atom    6 Element N  Has Mass   14.00307
   Atom    7 Element H  Has Mass    1.00783
   Atom    8 Element H  Has Mass    1.00783
   Atom    9 Element H  Has Mass    1.00783
   Atom   10 Element H  Has Mass    1.00783
   Atom   11 Element H  Has Mass    1.00783
   Atom   12 Element C  Has Mass   12.00000
   Atom   13 Element H  Has Mass    1.00783
   Molecular Mass:    92.050050 amu
   Principal axes and moments of inertia in amu*Bohr^2:
                             1           2           3
    Eigenvalues --      386.31081   401.91768   534.40589
          X              -0.13757     0.96064    -0.24136
          Y               0.91125     0.21825     0.34927
          Z              -0.38820     0.17189     0.90541
   Rotational Symmetry Number is   1
   The Molecule is an Asymmetric Top
   Translational Enthalpy:        0.889 kcal/mol
   Rotational Enthalpy:           0.889 kcal/mol
   Vibrational Enthalpy:         64.556 kcal/mol
   gas constant (RT):             0.592 kcal/mol
   Translational Entropy:        39.471  cal/mol.K
   Rotational Entropy:           25.920  cal/mol.K
   Vibrational Entropy:           4.322  cal/mol.K

   Total Enthalpy:               66.926 kcal/mol
   Total Entropy:                69.713  cal/mol.K

 Total job time:  563.21s(wall), 557.05s(cpu)
        *  Thank you very much for using Q-Chem.  Have a nice day.  *
