 Q-Chem 5.0, Q-Chem, Inc., Pleasanton, CA (2017)
 Q-Chem 5.0.2 for Intel X86 EM64T Linux

User input:
--------------------------------------------------------------
$molecule
0 2
C        1.2891059348    0.2902233781    0.2171687822
C        0.6169520258   -1.0283042309   -0.1872368568
C       -0.7078849638   -0.6204267597   -0.8018026740
C       -1.0706866190    0.1885777320    0.3862680841
C       -0.5129302034    1.2071141481   -0.5977994516
N        0.8045370071    1.4181007001   -0.5208384370
H        2.3292790409    0.2823668913    0.5252812428
H        1.1654483794   -1.9498376501   -0.3466047151
H       -1.2781424256   -1.0010675403   -1.6392846551
H       -2.0536990017    0.3106886832    0.8357846833
H       -1.1578611197    1.8268520106   -1.2119270956
C        0.2102159086   -0.3253840127    1.1043579618
H        0.3172399590   -0.6291683415    2.1401833832
$end

$rem
method                b3lyp
basis                 6-31+g(d,p)
unrestricted          true
symmetry              off
sym_ignore            true
incdft                false
incfock               0
scf_convergence       8
thresh                14
jobtype               freq
scf_guess             read
scf_algorithm         diis
max_scf_cycles        100
$end

--------------------------------------------------------------

             Standard Nuclear Orientation (Angstroms)
    I     Atom           X                Y                Z
 ----------------------------------------------------------------
    1      C       1.2891059348     0.2902233781     0.2171687822
    2      C       0.6169520258    -1.0283042309    -0.1872368568
    3      C      -0.7078849638    -0.6204267597    -0.8018026740
    4      C      -1.0706866190     0.1885777320     0.3862680841
    5      C      -0.5129302034     1.2071141481    -0.5977994516
    6      N       0.8045370071     1.4181007001    -0.5208384370
    7      H       2.3292790409     0.2823668913     0.5252812428
    8      H       1.1654483794    -1.9498376501    -0.3466047151
    9      H      -1.2781424256    -1.0010675403    -1.6392846551
   10      H      -2.0536990017     0.3106886832     0.8357846833
   11      H      -1.1578611197     1.8268520106    -1.2119270956
   12      C       0.2102159086    -0.3253840127     1.1043579618
   13      H       0.3172399590    -0.6291683415     2.1401833832
 ----------------------------------------------------------------

    2    -286.8367193832      2.35E-09 Convergence criterion met
 Total energy in the final basis set = -286.83671938

                    Orbital Energies (a.u.)
 --------------------------------------------------------------

 Alpha MOs
 -- Occupied --
-14.336 -10.230 -10.230 -10.225 -10.221 -10.216 -10.214  -0.990
 -0.854  -0.786  -0.664  -0.603  -0.582  -0.550  -0.537  -0.456
 -0.451  -0.418  -0.414  -0.387  -0.350  -0.293  -0.279  -0.256
 -0.202

 Beta MOs
 -- Occupied --
-14.325 -10.232 -10.226 -10.222 -10.220 -10.214 -10.214  -0.981
 -0.838  -0.781  -0.654  -0.601  -0.576  -0.544  -0.531  -0.453
 -0.446  -0.410  -0.403  -0.378  -0.338  -0.287  -0.266  -0.241

          Ground-State Mulliken Net Atomic Charges

     Atom                 Charge (a.u.)    Spin (a.u.)
  --------------------------------------------------------
      1 C                    -0.276206      -0.017445
      2 C                    -0.022260      -0.034407
      3 C                    -0.141128       0.573472
      4 C                     0.042732      -0.028006
      5 C                    -0.236006      -0.146898
      6 N                    -0.112866       0.567031
      7 H                     0.140484       0.000711
      8 H                     0.134667      -0.000627
      9 H                     0.140903      -0.023697
     10 H                     0.130911       0.012379
     11 H                     0.140626       0.003632
     12 C                    -0.072481       0.098290
     13 H                     0.130625      -0.004436
  --------------------------------------------------------
  Sum of atomic charges =     0.000000

                    Cartesian Multipole Moments
 -----------------------------------------------------------------
    Charge (ESU x 10^10)
                 0.0000
    Dipole Moment (Debye)
         X      -1.5732      Y      -2.1541      Z       0.8903
       Tot       2.8121
    Quadrupole Moments (Debye-Ang)
        XX     -38.7804     XY      -4.4831     YY     -45.0137
        XZ       2.9626     YZ       1.3820     ZZ     -40.5592

 Frequency:      -623.18                 469.95                 562.58
 Force Cnst:      2.0442                 0.4867                 0.5627
 Red. Mass:       8.9343                 3.7400                 3.0173
 IR Intens:        5.557                  3.835                  3.732
 Frequency:       606.84                 707.97                 732.74
 Force Cnst:      0.2900                 2.2128                 0.6250
 Red. Mass:       1.3367                 7.4933                 1.9759
 IR Intens:       15.359                  0.980                 11.279
 Frequency:       761.08                 788.79                 803.46
 Force Cnst:      1.6271                 1.1950                 0.9884
 Red. Mass:       4.7677                 3.2600                 2.5988
 IR Intens:       11.419                 17.186                  6.860
 Frequency:       845.55                 881.85                 905.68
 Force Cnst:      0.8168                 0.6665                 0.7716
 Red. Mass:       1.9391                 1.4546                 1.5965
 IR Intens:        5.901                 27.009                 18.160
 Frequency:       923.00                 968.80                 974.73
 Force Cnst:      0.8192                 0.9644                 0.8446
 Red. Mass:       1.6322                 1.7440                 1.5088
 IR Intens:        0.336                  2.551                  2.922
 Frequency:      1001.27                1046.43                1048.95
 Force Cnst:      0.9964                 0.8804                 2.0210
 Red. Mass:       1.6869                 1.3646                 3.1175
 IR Intens:        1.916                  2.166                  2.367
 Frequency:      1065.45                1138.89                1206.97
 Force Cnst:      1.1417                 1.7402                 1.1516
 Red. Mass:       1.7070                 2.2772                 1.3417
 IR Intens:        6.168                  0.333                  0.319
 Frequency:      1234.97                1246.78                1287.57
 Force Cnst:      2.6787                 1.2446                 1.9928
 Red. Mass:       2.9810                 1.3589                 2.0402
 IR Intens:        7.671                  1.795                 13.839
 Frequency:      1298.55                1338.98                1389.02
 Force Cnst:      2.3701                 2.4811                 2.7208
 Red. Mass:       2.3856                 2.3488                 2.3935
 IR Intens:        2.900                  6.139                  0.559
 Frequency:      3161.33                3199.05                3204.02
 Force Cnst:      6.4323                 6.5841                 6.5976
 Red. Mass:       1.0924                 1.0919                 1.0908
 IR Intens:       14.135                 11.676                  7.764
 Frequency:      3214.39                3216.56                3244.38
 Force Cnst:      6.6570                 6.6811                 6.8023
 Red. Mass:       1.0935                 1.0960                 1.0968
 IR Intens:       23.512                  0.857                  3.914

 STANDARD THERMODYNAMIC QUANTITIES AT   298.15 K  AND     1.00 ATM

   This Molecule has  1 Imaginary Frequencies
   Zero point vibrational energy:       63.582 kcal/mol

   Atom    1 Element C  Has Mass   12.00000
   Atom    2 Element C  Has Mass   12.00000
   Atom    3 Element C  Has Mass   12.00000
   Atom    4 Element C  Has Mass   12.00000
   Atom    5 Element C  Has Mass   12.00000
   Atom    6 Element N  Has Mass   14.00307
   Atom    7 Element H  Has Mass    1.00783
   Atom    8 Element H  Has Mass    1.00783
   Atom    9 Element H  Has Mass    1.00783
   Atom   10 Element H  Has Mass    1.00783
   Atom   11 Element H  Has Mass    1.00783
   Atom   12 Element C  Has Mass   12.00000
   Atom   13 Element H  Has Mass    1.00783
   Molecular Mass:    92.050050 amu
   Principal axes and moments of inertia in amu*Bohr^2:
                             1           2           3
    Eigenvalues --      385.69893   402.11804   534.53576
          X              -0.09013     0.96644    -0.24055
          Y               0.92100     0.17279     0.34914
          Z              -0.37899     0.19007     0.90567
   Rotational Symmetry Number is   1
   The Molecule is an Asymmetric Top
   Translational Enthalpy:        0.889 kcal/mol
   Rotational Enthalpy:           0.889 kcal/mol
   Vibrational Enthalpy:         64.578 kcal/mol
   gas constant (RT):             0.592 kcal/mol
   Translational Entropy:        39.471  cal/mol.K
   Rotational Entropy:           25.919  cal/mol.K
   Vibrational Entropy:           4.301  cal/mol.K

   Total Enthalpy:               66.948 kcal/mol
   Total Entropy:                69.691  cal/mol.K

 Total job time:  563.81s(wall), 559.17s(cpu)
        *  Thank you very much for using Q-Chem.  Have a nice day.  *
