 Q-Chem 5.0, Q-Chem, Inc., Pleasanton, CA (2017)
 Q-Chem 5.0.2 for Intel X86 EM64T Linux

User input:
--------------------------------------------------------------
$molecule
0 2
C        1.2891059348    0.2902233781    0.2171687822
C        0.6169520258   -1.0283042309   -0.1872368568
C       -0.7078849638   -0.6204267597   -0.8018026740
C       -1.0706866190    0.1885777320    0.3862680841
C       -0.5129302034    1.2071141481   -0.5977994516
N        0.8045370071    1.4181007001   -0.5208384370
H        2.3292790409    0.2823668913    0.5252812428
H        1.1654483794   -1.9498376501   -0.3466047151
H       -1.2781424256   -1.0010675403   -1.6392846551
H       -2.0536990017    0.3106886832    0.8357846833
H       -1.1578611197    1.8268520106   -1.2119270956
C        0.2102159086   -0.3253840127    1.1043579618
H        0.3172399590   -0.6291683415    2.1401833832
$end

$rem
method                b3lyp
basis                 6-31g(d)
unrestricted          true
symmetry              off
sym_ignore            true
incdft                false
incfock               0
scf_convergence       6
thresh                14
jobtype               sp
scf_guess             read
scf_algorithm         diis
max_scf_cycles        100
stability_analysis    true
max_cis_cycles        100
cis_n_roots           4
$end

--------------------------------------------------------------

             Standard Nuclear Orientation (Angstroms)
    I     Atom           X                Y                Z
 ----------------------------------------------------------------
    1      C       1.2891059348     0.2902233781     0.2171687822
    2      C       0.6169520258    -1.0283042309    -0.1872368568
    3      C      -0.7078849638    -0.6204267597    -0.8018026740
    4      C      -1.0706866190     0.1885777320     0.3862680841
    5      C      -0.5129302034     1.2071141481    -0.5977994516
    6      N       0.8045370071     1.4181007001    -0.5208384370
    7      H       2.3292790409     0.2823668913     0.5252812428
    8      H       1.1654483794    -1.9498376501    -0.3466047151
    9      H      -1.2781424256    -1.0010675403    -1.6392846551
   10      H      -2.0536990017     0.3106886832     0.8357846833
   11      H      -1.1578611197     1.8268520106    -1.2119270956
   12      C       0.2102159086    -0.3253840127     1.1043579618
   13      H       0.3172399590    -0.6291683415     2.1401833832
 ----------------------------------------------------------------

    2    -286.8156744869      3.35E-10 Convergence criterion met
 Total energy in the final basis set = -286.81567449

         TDDFT/TDA Excitation Energies
 ---------------------------------------------------

 Excited state   1: excitation energy (eV) =    2.6649
 Total energy for state  1:                  -286.71773959 au
    <S**2>     :  0.7683
    Trans. Mom.:  0.3060 X   0.1900 Y   0.0313 Z
    Strength   :     0.0085369258
    S(  1) --> V(  1) amplitude =  0.1703 alpha
    D( 23) --> S(  1) amplitude = -0.2312 beta
    D( 24) --> S(  1) amplitude =  0.9452 beta

 Excited state   2: excitation energy (eV) =    2.9909
 Total energy for state  2:                  -286.70576074 au
    <S**2>     :  0.7911
    Trans. Mom.:  0.0647 X   0.0716 Y  -0.0328 Z
    Strength   :     0.0007606479
    D( 22) --> S(  1) amplitude = -0.1766 beta
    D( 23) --> S(  1) amplitude =  0.9440 beta
    D( 24) --> S(  1) amplitude =  0.2429 beta

 Excited state   3: excitation energy (eV) =    3.9907
 Total energy for state  3:                  -286.66901850 au
    <S**2>     :  0.7888
    Trans. Mom.: -0.1449 X   0.0925 Y  -0.1699 Z
    Strength   :     0.0057097060
    D( 22) --> S(  1) amplitude =  0.9736 beta
    D( 23) --> S(  1) amplitude =  0.1921 beta

 Excited state   4: excitation energy (eV) =    5.1719
 Total energy for state  4:                  -286.62561039 au
    <S**2>     :  0.7917
    Trans. Mom.:  0.0104 X  -0.0245 Y  -0.0598 Z
    Strength   :     0.0005432140
    S(  1) --> V(  1) amplitude =  0.5790 alpha
    D( 21) --> S(  1) amplitude =  0.7858 beta

 ---------------------------------------------------

                    Orbital Energies (a.u.)
 --------------------------------------------------------------

 Alpha MOs
 -- Occupied --
-14.321 -10.219 -10.219 -10.215 -10.211 -10.206 -10.204  -0.979
 -0.843  -0.776  -0.655  -0.594  -0.573  -0.542  -0.530  -0.448
 -0.443  -0.409  -0.404  -0.378  -0.341  -0.283  -0.267  -0.245
 -0.190

 Beta MOs
 -- Occupied --
-14.310 -10.221 -10.216 -10.212 -10.210 -10.205 -10.204  -0.970
 -0.827  -0.771  -0.645  -0.591  -0.568  -0.536  -0.524  -0.445
 -0.437  -0.401  -0.394  -0.368  -0.328  -0.277  -0.254  -0.230

          Ground-State Mulliken Net Atomic Charges

     Atom                 Charge (a.u.)    Spin (a.u.)
  --------------------------------------------------------
      1 C                    -0.046167      -0.030245
      2 C                    -0.137628       0.001104
      3 C                    -0.109083       0.519587
      4 C                    -0.176704       0.014615
      5 C                     0.002426      -0.148848
      6 N                    -0.314131       0.571205
      7 H                     0.147936       0.000548
      8 H                     0.144712      -0.000852
      9 H                     0.152021      -0.024544
     10 H                     0.144637       0.011397
     11 H                     0.148655       0.004080
     12 C                    -0.100327       0.086624
     13 H                     0.143651      -0.004671
  --------------------------------------------------------
  Sum of atomic charges =    -0.000000

                    Cartesian Multipole Moments
 -----------------------------------------------------------------
    Charge (ESU x 10^10)
                 0.0000
    Dipole Moment (Debye)
         X      -1.4433      Y      -1.9685      Z       0.7576
       Tot       2.5558
    Quadrupole Moments (Debye-Ang)
        XX     -37.9354     XY      -3.9592     YY     -43.4180
        XZ       2.7760     YZ       1.1930     ZZ     -39.4297

 Total job time:  80.85s(wall), 78.88s(cpu)
        *  Thank you very much for using Q-Chem.  Have a nice day.  *
