 Q-Chem 5.0, Q-Chem, Inc., Pleasanton, CA (2017)
 Q-Chem 5.0.2 for Intel X86 EM64T Linux

User input:
--------------------------------------------------------------
$molecule
0 2
C        1.4341324215    0.3666919357   -0.0324287985
C        0.6929018324   -0.9209519475   -0.1798333392
C       -0.6534666138   -0.7332082286   -0.7945973504
C       -1.0671410255    0.2842143713    0.3618375996
C       -0.4659660264    1.3184150133   -0.5331968688
N        0.8488615327    1.4677461397   -0.4942864520
H        2.4920377616    0.3695384636    0.1993523407
H        1.3292338418   -1.7853267767   -0.3864786346
H       -1.1914090100   -1.5899601504   -1.2034914773
H       -2.0411975183    0.5635887281    0.7723751237
H       -1.0887303428    2.0669522732   -1.0055608218
C       -0.0298811269   -0.4414399998    1.1505214702
H       -0.3078018038   -0.9965248137    2.0493374606
$end

$rem
method                b3lyp
basis                 6-31g(d)
unrestricted          true
symmetry              off
sym_ignore            true
incdft                false
incfock               0
scf_convergence       8
thresh                14
jobtype               ts
scf_guess             read
scf_algorithm         diis
max_scf_cycles        100
geom_opt_max_cycles   500
geom_opt_dmax         100
geom_opt_tol_gradient 10
geom_opt_hessian      read
$end

--------------------------------------------------------------

    2    -286.7712868817      5.22E-10 Convergence criterion met
 Total energy in the final basis set = -286.77128688
   14    -286.7751695721      9.64E-09 Convergence criterion met
 Total energy in the final basis set = -286.77516957
   15    -286.7783805795      4.46E-09 Convergence criterion met
 Total energy in the final basis set = -286.77838058
   15    -286.7810581211      4.36E-09 Convergence criterion met
 Total energy in the final basis set = -286.78105812
   15    -286.7833155865      5.44E-09 Convergence criterion met
 Total energy in the final basis set = -286.78331559
   15    -286.7852695086      5.01E-09 Convergence criterion met
 Total energy in the final basis set = -286.78526951
   15    -286.7870393123      5.44E-09 Convergence criterion met
 Total energy in the final basis set = -286.78703931
   15    -286.7887515727      5.81E-09 Convergence criterion met
   12    -286.8156700177      7.22E-09 Convergence criterion met
 Total energy in the final basis set = -286.81567002
   11    -286.8156732547      9.15E-09 Convergence criterion met
 Total energy in the final basis set = -286.81567325
   13    -286.8156388911      4.01E-09 Convergence criterion met
 Total energy in the final basis set = -286.81563889
   13    -286.8156742261      4.02E-09 Convergence criterion met
 Total energy in the final basis set = -286.81567423
   10    -286.8156744306      7.70E-09 Convergence criterion met
 Total energy in the final basis set = -286.81567443
   10    -286.8156744319      5.85E-09 Convergence criterion met
 Total energy in the final basis set = -286.81567443

             Standard Nuclear Orientation (Angstroms)
    I     Atom           X                Y                Z
 ----------------------------------------------------------------
    1      C       1.2891059348     0.2902233781     0.2171687822
    2      C       0.6169520258    -1.0283042309    -0.1872368568
    3      C      -0.7078849638    -0.6204267597    -0.8018026740
    4      C      -1.0706866190     0.1885777320     0.3862680841
    5      C      -0.5129302034     1.2071141481    -0.5977994516
    6      N       0.8045370071     1.4181007001    -0.5208384370
    7      H       2.3292790409     0.2823668913     0.5252812428
    8      H       1.1654483794    -1.9498376501    -0.3466047151
    9      H      -1.2781424256    -1.0010675403    -1.6392846551
   10      H      -2.0536990017     0.3106886832     0.8357846833
   11      H      -1.1578611197     1.8268520106    -1.2119270956
   12      C       0.2102159086    -0.3253840127     1.1043579618
   13      H       0.3172399590    -0.6291683415     2.1401833832
 ----------------------------------------------------------------

   10    -286.8156744870      4.51E-09 Convergence criterion met
 Total energy in the final basis set = -286.81567449
 Final energy is   -286.815674486959
 **  OPTIMIZATION CONVERGED  **

                    Orbital Energies (a.u.)
 --------------------------------------------------------------

 Alpha MOs
 -- Occupied --
-14.321 -10.219 -10.219 -10.215 -10.211 -10.206 -10.204  -0.979
 -0.843  -0.776  -0.655  -0.594  -0.573  -0.542  -0.530  -0.448
 -0.443  -0.409  -0.404  -0.378  -0.341  -0.283  -0.267  -0.245
 -0.190

 Beta MOs
 -- Occupied --
-14.310 -10.221 -10.216 -10.212 -10.210 -10.205 -10.204  -0.970
 -0.827  -0.771  -0.645  -0.591  -0.568  -0.536  -0.524  -0.445
 -0.437  -0.401  -0.394  -0.368  -0.328  -0.277  -0.254  -0.230

          Ground-State Mulliken Net Atomic Charges

     Atom                 Charge (a.u.)    Spin (a.u.)
  --------------------------------------------------------
      1 C                    -0.046167      -0.030244
      2 C                    -0.137628       0.001104
      3 C                    -0.109083       0.519588
      4 C                    -0.176704       0.014615
      5 C                     0.002426      -0.148848
      6 N                    -0.314131       0.571205
      7 H                     0.147936       0.000548
      8 H                     0.144712      -0.000852
      9 H                     0.152021      -0.024544
     10 H                     0.144637       0.011397
     11 H                     0.148655       0.004080
     12 C                    -0.100327       0.086624
     13 H                     0.143651      -0.004671
  --------------------------------------------------------
  Sum of atomic charges =    -0.000000

                    Cartesian Multipole Moments
 -----------------------------------------------------------------
    Charge (ESU x 10^10)
                -0.0000
    Dipole Moment (Debye)
         X      -1.4433      Y      -1.9685      Z       0.7576
       Tot       2.5558
    Quadrupole Moments (Debye-Ang)
        XX     -37.9354     XY      -3.9592     YY     -43.4180
        XZ       2.7760     YZ       1.1930     ZZ     -39.4297

 Total job time:  452.89s(wall), 1611.05s(cpu)
        *  Thank you very much for using Q-Chem.  Have a nice day.  *
