 Q-Chem 5.0, Q-Chem, Inc., Pleasanton, CA (2017)
 Q-Chem 5.0.2 for Intel X86 EM64T Linux

User input:
--------------------------------------------------------------
$molecule
0 2
C        1.2891059348    0.2902233781    0.2171687822
C        0.6169520258   -1.0283042309   -0.1872368568
C       -0.7078849638   -0.6204267597   -0.8018026740
C       -1.0706866190    0.1885777320    0.3862680841
C       -0.5129302034    1.2071141481   -0.5977994516
N        0.8045370071    1.4181007001   -0.5208384370
H        2.3292790409    0.2823668913    0.5252812428
H        1.1654483794   -1.9498376501   -0.3466047151
H       -1.2781424256   -1.0010675403   -1.6392846551
H       -2.0536990017    0.3106886832    0.8357846833
H       -1.1578611197    1.8268520106   -1.2119270956
C        0.2102159086   -0.3253840127    1.1043579618
H        0.3172399590   -0.6291683415    2.1401833832
$end

$rem
method                b3lyp
basis                 6-31+g(d,p)
unrestricted          true
symmetry              off
sym_ignore            true
incdft                false
incfock               0
scf_convergence       6
thresh                14
jobtype               sp
scf_guess             read
scf_algorithm         diis
max_scf_cycles        100
stability_analysis    true
max_cis_cycles        100
cis_n_roots           4
$end

--------------------------------------------------------------

             Standard Nuclear Orientation (Angstroms)
    I     Atom           X                Y                Z
 ----------------------------------------------------------------
    1      C       1.2891059348     0.2902233781     0.2171687822
    2      C       0.6169520258    -1.0283042309    -0.1872368568
    3      C      -0.7078849638    -0.6204267597    -0.8018026740
    4      C      -1.0706866190     0.1885777320     0.3862680841
    5      C      -0.5129302034     1.2071141481    -0.5977994516
    6      N       0.8045370071     1.4181007001    -0.5208384370
    7      H       2.3292790409     0.2823668913     0.5252812428
    8      H       1.1654483794    -1.9498376501    -0.3466047151
    9      H      -1.2781424256    -1.0010675403    -1.6392846551
   10      H      -2.0536990017     0.3106886832     0.8357846833
   11      H      -1.1578611197     1.8268520106    -1.2119270956
   12      C       0.2102159086    -0.3253840127     1.1043579618
   13      H       0.3172399590    -0.6291683415     2.1401833832
 ----------------------------------------------------------------

    2    -286.8367193833      3.98E-09 Convergence criterion met
 Total energy in the final basis set = -286.83671938

         TDDFT/TDA Excitation Energies
 ---------------------------------------------------

 Excited state   1: excitation energy (eV) =    2.5957
 Total energy for state  1:                  -286.74132871 au
    <S**2>     :  0.7679
    Trans. Mom.:  0.3322 X   0.2065 Y   0.0308 Z
    Strength   :     0.0097918773
    D( 24) --> S(  1) amplitude =  0.9637 beta

 Excited state   2: excitation energy (eV) =    2.9795
 Total energy for state  2:                  -286.72722488 au
    <S**2>     :  0.7908
    Trans. Mom.:  0.0182 X   0.0574 Y  -0.0235 Z
    Strength   :     0.0003046138
    D( 22) --> S(  1) amplitude =  0.2129 beta
    D( 23) --> S(  1) amplitude =  0.9536 beta
    D( 24) --> S(  1) amplitude =  0.1583 beta

 Excited state   3: excitation energy (eV) =    3.8725
 Total energy for state  3:                  -286.69440585 au
    <S**2>     :  0.7895
    Trans. Mom.:  0.1476 X  -0.0918 Y   0.1750 Z
    Strength   :     0.0057717084
    D( 22) --> S(  1) amplitude =  0.9663 beta
    D( 23) --> S(  1) amplitude = -0.2231 beta

 Excited state   4: excitation energy (eV) =    4.6542
 Total energy for state  4:                  -286.66568167 au
    <S**2>     :  0.8199
    Trans. Mom.:  0.0268 X  -0.1482 Y  -0.0722 Z
    Strength   :     0.0031829851
    S(  1) --> V(  1) amplitude =  0.9807 alpha
    S(  1) --> V(  2) amplitude =  0.1627 alpha

 ---------------------------------------------------

                    Orbital Energies (a.u.)
 --------------------------------------------------------------

 Alpha MOs
 -- Occupied --
-14.336 -10.230 -10.230 -10.225 -10.221 -10.216 -10.214  -0.990
 -0.854  -0.786  -0.664  -0.603  -0.582  -0.550  -0.537  -0.456
 -0.451  -0.418  -0.414  -0.387  -0.350  -0.293  -0.279  -0.256
 -0.202

 Beta MOs
 -- Occupied --
-14.325 -10.232 -10.226 -10.222 -10.220 -10.214 -10.214  -0.981
 -0.838  -0.781  -0.654  -0.601  -0.576  -0.544  -0.531  -0.453
 -0.446  -0.410  -0.403  -0.378  -0.338  -0.287  -0.266  -0.241

          Ground-State Mulliken Net Atomic Charges

     Atom                 Charge (a.u.)    Spin (a.u.)
  --------------------------------------------------------
      1 C                    -0.276206      -0.017445
      2 C                    -0.022260      -0.034406
      3 C                    -0.141128       0.573472
      4 C                     0.042732      -0.028006
      5 C                    -0.236006      -0.146897
      6 N                    -0.112866       0.567031
      7 H                     0.140484       0.000711
      8 H                     0.134667      -0.000627
      9 H                     0.140903      -0.023697
     10 H                     0.130911       0.012379
     11 H                     0.140626       0.003632
     12 C                    -0.072481       0.098290
     13 H                     0.130625      -0.004436
  --------------------------------------------------------
  Sum of atomic charges =     0.000000

                    Cartesian Multipole Moments
 -----------------------------------------------------------------
    Charge (ESU x 10^10)
                 0.0000
    Dipole Moment (Debye)
         X      -1.5732      Y      -2.1541      Z       0.8903
       Tot       2.8121
    Quadrupole Moments (Debye-Ang)
        XX     -38.7804     XY      -4.4831     YY     -45.0137
        XZ       2.9626     YZ       1.3820     ZZ     -40.5592

 Total job time:  183.06s(wall), 179.26s(cpu)
        *  Thank you very much for using Q-Chem.  Have a nice day.  *
