 Q-Chem 5.0, Q-Chem, Inc., Pleasanton, CA (2017)
 Q-Chem 5.0.2 for Intel X86 EM64T Linux

User input:
--------------------------------------------------------------
$molecule
0 2
C        1.6803072342    0.3945463122   -0.1790683170
C        1.1263490106   -0.8348011062   -0.2673907334
C       -0.3164220115   -1.0621630924   -0.0827497347
C       -1.1559921890    0.3283053733    0.0476775594
C       -0.3270390790    1.5323805493   -0.1490913060
N        0.9598779594    1.5896965768   -0.1665298860
H        2.7571846633    0.5230636471   -0.2509313291
H        1.7481625718   -1.6980040683   -0.4919427787
H       -0.7580703293   -1.9017057218   -0.6227678223
H       -2.1629936635    0.3924217203   -0.3692168243
H       -0.8669858804    2.4604237218   -0.3527428824
C       -0.9581665579   -0.6145042569    1.1513137541
H       -1.7262117293   -1.1096596548    1.7334402998
****
C        1.1817511755    0.3159810802    0.4224808681
C        0.6606714180   -1.0909876685   -0.1224658165
C       -0.5671542514   -0.9251514321   -0.8882113850
C       -1.0851723069    0.1541927299    0.0598863570
C       -0.4654526888    1.4493570458   -0.4513033676
N        0.8066401300    1.5099103282   -0.2928003542
H        2.1701117512    0.2891431988    0.8698527010
H        1.3602633717   -1.9209098826   -0.1336211866
H       -0.8186152028   -1.1403540626   -1.9241126799
H       -2.1444925596    0.1671201826    0.3255108814
H       -1.0077872990    2.2013625395   -1.0222880467
C        0.0158181051   -0.3478210768    1.0624227087
H       -0.1065816429   -0.6618429823    2.0946493205
$end

$rem
method                b3lyp
basis                 6-31g(d)
unrestricted          true
symmetry              off
sym_ignore            true
incdft                false
incfock               0
scf_convergence       8
thresh                14
jobtype               fsm
scf_guess             core
scf_guess_mix         5
scf_algorithm         diis
max_scf_cycles        100
fsm_nnode             21
fsm_ngrad             6
fsm_mode              2
fsm_opt_mode          2
$end

--------------------------------------------------------------

   20    -286.8549117856      8.20E-09 Convergence criterion met
 Total energy in the final basis set = -286.85491179
   20    -286.8383289335      8.13E-09 Convergence criterion met
 Total energy in the final basis set = -286.83832893
   21    -286.8534094333      7.73E-09 Convergence criterion met
 Total energy in the final basis set = -286.85340943
   22    -286.8532962483      4.50E-09 Convergence criterion met
 Total energy in the final basis set = -286.85329625
   22    -286.8468764536      8.91E-09 Convergence criterion met
 Total energy in the final basis set = -286.84687645
   22    -286.8514663590      6.60E-09 Convergence criterion met
 Total energy in the final basis set = -286.85146636
   21    -286.8338178427      7.31E-09 Convergence criterion met
 Total energy in the final basis set = -286.83381784
   21    -286.8328003203      4.59E-09 Convergence criterion met
 Total energy in the final basis set = -286.76766948
   23    -286.7679549751      7.24E-09 Convergence criterion met
 Total energy in the final basis set = -286.76795498
   23    -286.7675404546      9.98E-09 Convergence criterion met
 Total energy in the final basis set = -286.76754045
   23    -286.7681013103      6.96E-09 Convergence criterion met
 Total energy in the final basis set = -286.76810131
   24    -286.7674936569      4.30E-09 Convergence criterion met
 Total energy in the final basis set = -286.76749366
   23    -286.7681591776      6.81E-09 Convergence criterion met
 Total energy in the final basis set = -286.76815918
   24    -286.7674747208      4.30E-09 Convergence criterion met
 Total energy in the final basis set = -286.76747472
   23    -286.7681875466      6.77E-09 Convergence criterion met
 Total energy in the final basis set = -286.76818755

                    Orbital Energies (a.u.)
 --------------------------------------------------------------

 Alpha MOs
 -- Occupied --
-14.313 -10.247 -10.228 -10.226 -10.219 -10.218 -10.203  -0.954
 -0.860  -0.748  -0.646  -0.618  -0.601  -0.537  -0.490  -0.446
 -0.438  -0.413  -0.413  -0.360  -0.360  -0.313  -0.263  -0.233
 -0.126

 Beta MOs
 -- Occupied --
-14.313 -10.248 -10.226 -10.223 -10.219 -10.211 -10.199  -0.949
 -0.855  -0.740  -0.638  -0.609  -0.597  -0.534  -0.485  -0.443
 -0.432  -0.410  -0.401  -0.357  -0.350  -0.297  -0.257  -0.225

          Ground-State Mulliken Net Atomic Charges

     Atom                 Charge (a.u.)    Spin (a.u.)
  --------------------------------------------------------
      1 C                     0.016371       0.354863
      2 C                    -0.161550      -0.000201
      3 C                    -0.084245       0.589081
      4 C                    -0.265156      -0.025099
      5 C                     0.101623       0.298322
      6 N                    -0.354985      -0.055704
      7 H                     0.142304      -0.007633
      8 H                     0.154962      -0.002784
      9 H                     0.152865      -0.018669
     10 H                     0.145220       0.000118
     11 H                     0.134831      -0.015323
     12 C                    -0.134379      -0.146153
     13 H                     0.152137       0.029180
  --------------------------------------------------------
  Sum of atomic charges =     0.000000

                    Cartesian Multipole Moments
 -----------------------------------------------------------------
    Charge (ESU x 10^10)
                 0.0000
    Dipole Moment (Debye)
         X      -1.2913      Y      -2.5946      Z       0.5707
       Tot       2.9539
    Quadrupole Moments (Debye-Ang)
        XX     -37.5603     XY      -3.9768     YY     -42.2622
        XZ       0.1580     YZ      -0.2206     ZZ     -42.4795

             Standard Nuclear Orientation (Angstroms)
    I     Atom           X                Y                Z
 ----------------------------------------------------------------
    1      C       1.3711856768     0.3868602538     0.2355029499
    2      C       0.8002638969    -0.9477703272    -0.1724502981
    3      C      -0.4941735811    -0.9013843347    -0.8609604505
    4      C      -1.0666074416     0.2769533464    -0.0362311649
    5      C      -0.4034644894     1.5669372487    -0.3780924200
    6      N       0.8795386605     1.5940359911    -0.1992350254
    7      H       2.4038512620     0.3831752873     0.5840751396
    8      H       1.5155450733    -1.7656944508    -0.2283480979
    9      H      -1.0360638277    -1.8251249241    -1.0486958219
   10      H      -2.1610363870     0.3270009432     0.0389772020
   11      H      -0.9334835374     2.4530820122    -0.7141074034
   12      C      -0.2122962373    -0.5028562398     0.9852215075
   13      H      -0.7241712676    -1.0855783533     1.7850490099
 ----------------------------------------------------------------

 Total job time:  4346.16s(wall), 5178.78s(cpu)
        *  Thank you very much for using Q-Chem.  Have a nice day.  *
