 Q-Chem 5.0, Q-Chem, Inc., Pleasanton, CA (2017)
 Q-Chem 5.0.2 for Intel X86 EM64T Linux

User input:
--------------------------------------------------------------
$molecule
0 2
C        1.3586352266    0.4036884407    0.2240864355
C        0.8089703589   -0.9180285992   -0.2332450540
C       -0.5244386742   -0.8717108452   -0.9057546372
C       -1.0747660992    0.3169841336   -0.0428655972
C       -0.4047779643    1.5870781442   -0.3957180554
N        0.8856618472    1.6126266754   -0.1978300457
H        2.2611051455    0.3712494226    0.8274358536
H        1.4263197578   -1.8096138920   -0.1941284227
H       -1.0813423222   -1.8088943857   -0.9204125873
H       -2.1460531454    0.3331709506    0.1491896865
H       -0.9225507945    2.4349849892   -0.8355683221
C       -0.1611721598   -0.5332232190    0.8429671317
H       -0.4865033758   -1.1586753625    1.6725487411
$end

$rem
method                b3lyp
basis                 6-31+g(d,p)
unrestricted          true
symmetry              off
sym_ignore            true
incdft                false
incfock               0
scf_convergence       8
thresh                14
jobtype               freq
scf_guess             read
scf_algorithm         diis
max_scf_cycles        100
$end

--------------------------------------------------------------

             Standard Nuclear Orientation (Angstroms)
    I     Atom           X                Y                Z
 ----------------------------------------------------------------
    1      C       1.3586352266     0.4036884407     0.2240864355
    2      C       0.8089703589    -0.9180285992    -0.2332450540
    3      C      -0.5244386742    -0.8717108452    -0.9057546372
    4      C      -1.0747660992     0.3169841336    -0.0428655972
    5      C      -0.4047779643     1.5870781442    -0.3957180554
    6      N       0.8856618472     1.6126266754    -0.1978300457
    7      H       2.2611051455     0.3712494226     0.8274358536
    8      H       1.4263197578    -1.8096138920    -0.1941284227
    9      H      -1.0813423222    -1.8088943857    -0.9204125873
   10      H      -2.1460531454     0.3331709506     0.1491896865
   11      H      -0.9225507945     2.4349849892    -0.8355683221
   12      C      -0.1611721598    -0.5332232190     0.8429671317
   13      H      -0.4865033758    -1.1586753625     1.6725487411
 ----------------------------------------------------------------

    2    -286.8140801616      1.69E-09 Convergence criterion met
 Total energy in the final basis set = -286.81408016

                    Orbital Energies (a.u.)
 --------------------------------------------------------------

 Alpha MOs
 -- Occupied --
-14.332 -10.250 -10.246 -10.232 -10.230 -10.228 -10.220  -0.979
 -0.888  -0.767  -0.655  -0.637  -0.614  -0.556  -0.505  -0.461
 -0.449  -0.433  -0.422  -0.381  -0.374  -0.321  -0.281  -0.256
 -0.140

 Beta MOs
 -- Occupied --
-14.332 -10.251 -10.243 -10.228 -10.227 -10.224 -10.216  -0.974
 -0.884  -0.759  -0.647  -0.627  -0.610  -0.553  -0.500  -0.458
 -0.443  -0.429  -0.412  -0.374  -0.367  -0.303  -0.275  -0.246

          Ground-State Mulliken Net Atomic Charges

     Atom                 Charge (a.u.)    Spin (a.u.)
  --------------------------------------------------------
      1 C                    -0.240828       0.259613
      2 C                    -0.064551       0.037158
      3 C                    -0.146185       0.613647
      4 C                    -0.270023      -0.045713
      5 C                     0.021730       0.245154
      6 N                    -0.196743      -0.012623
      7 H                     0.142755      -0.009917
      8 H                     0.150299      -0.007023
      9 H                     0.152428      -0.003579
     10 H                     0.139736      -0.002810
     11 H                     0.128476      -0.013594
     12 C                     0.034920      -0.076155
     13 H                     0.147987       0.015842
  --------------------------------------------------------
  Sum of atomic charges =    -0.000000

                    Cartesian Multipole Moments
 -----------------------------------------------------------------
    Charge (ESU x 10^10)
                 0.0000
    Dipole Moment (Debye)
         X      -1.3218      Y      -2.8347      Z       1.3732
       Tot       3.4159
    Quadrupole Moments (Debye-Ang)
        XX     -39.2503     XY      -4.5800     YY     -43.4362
        XZ       1.0765     YZ      -1.4006     ZZ     -44.3187

 Frequency:      -918.81                 172.55                 440.11
 Force Cnst:      2.6484                 0.0933                 0.3152
 Red. Mass:       5.3245                 5.3209                 2.7619
 IR Intens:      218.777                 28.320                  0.948
 Frequency:       467.32                 648.04                 671.19
 Force Cnst:      0.7357                 1.4996                 0.7672
 Red. Mass:       5.7179                 6.0605                 2.8905
 IR Intens:        6.205                 11.731                 38.432
 Frequency:       694.92                 761.38                 792.04
 Force Cnst:      0.9048                 0.5178                 0.5591
 Red. Mass:       3.1800                 1.5161                 1.5128
 IR Intens:        6.799                 22.854                 41.895
 Frequency:       821.00                 857.67                 879.42
 Force Cnst:      0.6464                 0.6364                 0.9280
 Red. Mass:       1.6276                 1.4683                 2.0366
 IR Intens:        4.327                  2.965                 64.474
 Frequency:       916.43                 943.01                 986.36
 Force Cnst:      0.7843                 0.8598                 1.3187
 Red. Mass:       1.5850                 1.6410                 2.3005
 IR Intens:        2.737                 14.142                  1.887
 Frequency:      1020.74                1053.84                1070.38
 Force Cnst:      1.1641                 1.2230                 1.0394
 Red. Mass:       1.8963                 1.8690                 1.5398
 IR Intens:        1.770                  5.442                  3.107
 Frequency:      1157.10                1175.71                1197.79
 Force Cnst:      1.9060                 1.0938                 1.3878
 Red. Mass:       2.4162                 1.3430                 1.6418
 IR Intens:       11.088                  7.210                 12.085
 Frequency:      1232.30                1319.57                1334.54
 Force Cnst:      1.6718                 1.4347                 2.0736
 Red. Mass:       1.8685                 1.3984                 1.9761
 IR Intens:        8.013                  7.188                 13.386
 Frequency:      1365.29                1400.71                1537.14
 Force Cnst:      2.1760                 2.6411                 6.1582
 Red. Mass:       1.9813                 2.2848                 4.4236
 IR Intens:       11.053                  3.778                 66.525
 Frequency:      3138.10                3155.23                3165.63
 Force Cnst:      6.3116                 6.3927                 6.4468
 Red. Mass:       1.0878                 1.0899                 1.0919
 IR Intens:       13.921                  7.409                 17.210
 Frequency:      3192.74                3198.23                3204.82
 Force Cnst:      6.5360                 6.5839                 6.6262
 Red. Mass:       1.0883                 1.0925                 1.0950
 IR Intens:        7.235                 15.174                  5.861

 STANDARD THERMODYNAMIC QUANTITIES AT   298.15 K  AND     1.00 ATM

   This Molecule has  1 Imaginary Frequencies
   Zero point vibrational energy:       62.860 kcal/mol

   Atom    1 Element C  Has Mass   12.00000
   Atom    2 Element C  Has Mass   12.00000
   Atom    3 Element C  Has Mass   12.00000
   Atom    4 Element C  Has Mass   12.00000
   Atom    5 Element C  Has Mass   12.00000
   Atom    6 Element N  Has Mass   14.00307
   Atom    7 Element H  Has Mass    1.00783
   Atom    8 Element H  Has Mass    1.00783
   Atom    9 Element H  Has Mass    1.00783
   Atom   10 Element H  Has Mass    1.00783
   Atom   11 Element H  Has Mass    1.00783
   Atom   12 Element C  Has Mass   12.00000
   Atom   13 Element H  Has Mass    1.00783
   Molecular Mass:    92.050050 amu
   Principal axes and moments of inertia in amu*Bohr^2:
                             1           2           3
    Eigenvalues --      348.73945   458.44276   632.23139
          X               0.23274     0.95432    -0.18739
          Y               0.97218    -0.22306     0.07147
          Z              -0.02641     0.19881     0.97968
   Rotational Symmetry Number is   1
   The Molecule is an Asymmetric Top
   Translational Enthalpy:        0.889 kcal/mol
   Rotational Enthalpy:           0.889 kcal/mol
   Vibrational Enthalpy:         64.243 kcal/mol
   gas constant (RT):             0.592 kcal/mol
   Translational Entropy:        39.471  cal/mol.K
   Rotational Entropy:           26.116  cal/mol.K
   Vibrational Entropy:           6.819  cal/mol.K

   Total Enthalpy:               66.613 kcal/mol
   Total Entropy:                72.406  cal/mol.K

 Total job time:  655.92s(wall), 565.37s(cpu)
        *  Thank you very much for using Q-Chem.  Have a nice day.  *
