 Q-Chem 5.0, Q-Chem, Inc., Pleasanton, CA (2017)
 Q-Chem 5.0.2 for Intel X86 EM64T Linux

User input:
--------------------------------------------------------------
$molecule
0 2
C        1.3586352266    0.4036884407    0.2240864355
C        0.8089703589   -0.9180285992   -0.2332450540
C       -0.5244386742   -0.8717108452   -0.9057546372
C       -1.0747660992    0.3169841336   -0.0428655972
C       -0.4047779643    1.5870781442   -0.3957180554
N        0.8856618472    1.6126266754   -0.1978300457
H        2.2611051455    0.3712494226    0.8274358536
H        1.4263197578   -1.8096138920   -0.1941284227
H       -1.0813423222   -1.8088943857   -0.9204125873
H       -2.1460531454    0.3331709506    0.1491896865
H       -0.9225507945    2.4349849892   -0.8355683221
C       -0.1611721598   -0.5332232190    0.8429671317
H       -0.4865033758   -1.1586753625    1.6725487411
$end

$rem
method                b3lyp
basis                 6-31+g(d,p)
unrestricted          true
symmetry              off
sym_ignore            true
incdft                false
incfock               0
scf_convergence       8
thresh                14
jobtype               sp
scf_guess             core
scf_guess_mix         5
scf_algorithm         diis
max_scf_cycles        100
$end

--------------------------------------------------------------

             Standard Nuclear Orientation (Angstroms)
    I     Atom           X                Y                Z
 ----------------------------------------------------------------
    1      C       1.3586352266     0.4036884407     0.2240864355
    2      C       0.8089703589    -0.9180285992    -0.2332450540
    3      C      -0.5244386742    -0.8717108452    -0.9057546372
    4      C      -1.0747660992     0.3169841336    -0.0428655972
    5      C      -0.4047779643     1.5870781442    -0.3957180554
    6      N       0.8856618472     1.6126266754    -0.1978300457
    7      H       2.2611051455     0.3712494226     0.8274358536
    8      H       1.4263197578    -1.8096138920    -0.1941284227
    9      H      -1.0813423222    -1.8088943857    -0.9204125873
   10      H      -2.1460531454     0.3331709506     0.1491896865
   11      H      -0.9225507945     2.4349849892    -0.8355683221
   12      C      -0.1611721598    -0.5332232190     0.8429671317
   13      H      -0.4865033758    -1.1586753625     1.6725487411
 ----------------------------------------------------------------

   23    -286.8140801615      5.86E-09 Convergence criterion met
 Total energy in the final basis set = -286.81408016

                    Orbital Energies (a.u.)
 --------------------------------------------------------------

 Alpha MOs
 -- Occupied --
-14.332 -10.250 -10.246 -10.232 -10.230 -10.228 -10.220  -0.979
 -0.888  -0.767  -0.655  -0.637  -0.614  -0.556  -0.505  -0.461
 -0.449  -0.433  -0.422  -0.381  -0.374  -0.321  -0.281  -0.256
 -0.140

 Beta MOs
 -- Occupied --
-14.332 -10.251 -10.243 -10.228 -10.227 -10.224 -10.216  -0.974
 -0.884  -0.759  -0.647  -0.627  -0.610  -0.553  -0.500  -0.458
 -0.443  -0.429  -0.412  -0.374  -0.367  -0.303  -0.275  -0.246

          Ground-State Mulliken Net Atomic Charges

     Atom                 Charge (a.u.)    Spin (a.u.)
  --------------------------------------------------------
      1 C                    -0.240827       0.259612
      2 C                    -0.064551       0.037157
      3 C                    -0.146185       0.613646
      4 C                    -0.270024      -0.045712
      5 C                     0.021730       0.245149
      6 N                    -0.196743      -0.012619
      7 H                     0.142755      -0.009917
      8 H                     0.150299      -0.007023
      9 H                     0.152428      -0.003579
     10 H                     0.139736      -0.002810
     11 H                     0.128476      -0.013593
     12 C                     0.034920      -0.076152
     13 H                     0.147987       0.015842
  --------------------------------------------------------
  Sum of atomic charges =    -0.000000

                    Cartesian Multipole Moments
 -----------------------------------------------------------------
    Charge (ESU x 10^10)
                -0.0000
    Dipole Moment (Debye)
         X      -1.3218      Y      -2.8347      Z       1.3732
       Tot       3.4159
    Quadrupole Moments (Debye-Ang)
        XX     -39.2503     XY      -4.5800     YY     -43.4362
        XZ       1.0765     YZ      -1.4006     ZZ     -44.3187

 Total job time:  80.00s(wall), 121.14s(cpu)
        *  Thank you very much for using Q-Chem.  Have a nice day.  *
