 Q-Chem 5.0, Q-Chem, Inc., Pleasanton, CA (2017)
 Q-Chem 5.0.2 for Intel X86 EM64T Linux

User input:
--------------------------------------------------------------
$molecule
0 2
C        1.3586352266    0.4036884407    0.2240864355
C        0.8089703589   -0.9180285992   -0.2332450540
C       -0.5244386742   -0.8717108452   -0.9057546372
C       -1.0747660992    0.3169841336   -0.0428655972
C       -0.4047779643    1.5870781442   -0.3957180554
N        0.8856618472    1.6126266754   -0.1978300457
H        2.2611051455    0.3712494226    0.8274358536
H        1.4263197578   -1.8096138920   -0.1941284227
H       -1.0813423222   -1.8088943857   -0.9204125873
H       -2.1460531454    0.3331709506    0.1491896865
H       -0.9225507945    2.4349849892   -0.8355683221
C       -0.1611721598   -0.5332232190    0.8429671317
H       -0.4865033758   -1.1586753625    1.6725487411
$end

$rem
method                b3lyp
basis                 6-31+g(d,p)
unrestricted          true
symmetry              off
sym_ignore            true
incdft                false
incfock               0
scf_convergence       8
thresh                14
jobtype               ts
scf_guess             read
scf_algorithm         diis
max_scf_cycles        100
geom_opt_max_cycles   500
geom_opt_dmax         100
geom_opt_tol_gradient 10
geom_opt_hessian      read
$end

--------------------------------------------------------------

    2    -286.8140801615      2.61E-10 Convergence criterion met
 Total energy in the final basis set = -286.81408016
   14    -286.8141286030      8.00E-09 Convergence criterion met
 Total energy in the final basis set = -286.81412860

             Standard Nuclear Orientation (Angstroms)
    I     Atom           X                Y                Z
 ----------------------------------------------------------------
    1      C       1.3542003206     0.3995924955     0.2294977592
    2      C       0.8129720329    -0.9194641018    -0.2379946595
    3      C      -0.5249928943    -0.8761636033    -0.8946753331
    4      C      -1.0756454759     0.3189177532    -0.0458480461
    5      C      -0.4066826333     1.5890078753    -0.3993323935
    6      N       0.8845153309     1.6115391608    -0.1974919676
    7      H       2.2556847122     0.3665544144     0.8331293332
    8      H       1.4292310131    -1.8109877188    -0.2007777914
    9      H      -1.0836612633    -1.8110997420    -0.9272774856
   10      H      -2.1460786261     0.3339818740     0.1475323030
   11      H      -0.9238215620     2.4384986760    -0.8347693021
   12      C      -0.1589904230    -0.5299168238     0.8419242501
   13      H      -0.4776427313    -1.1508238068     1.6767884602
 ----------------------------------------------------------------

   12    -286.8141289545      5.16E-09 Convergence criterion met
 Total energy in the final basis set = -286.81412895
 Final energy is   -286.814128954526
 **  OPTIMIZATION CONVERGED  **

                    Orbital Energies (a.u.)
 --------------------------------------------------------------

 Alpha MOs
 -- Occupied --
-14.331 -10.252 -10.246 -10.232 -10.230 -10.228 -10.219  -0.979
 -0.888  -0.767  -0.655  -0.636  -0.613  -0.557  -0.506  -0.461
 -0.450  -0.433  -0.422  -0.380  -0.374  -0.321  -0.280  -0.257
 -0.137

 Beta MOs
 -- Occupied --
-14.331 -10.253 -10.243 -10.228 -10.227 -10.224 -10.215  -0.974
 -0.883  -0.760  -0.648  -0.627  -0.610  -0.553  -0.501  -0.458
 -0.443  -0.430  -0.412  -0.374  -0.366  -0.303  -0.273  -0.247

          Ground-State Mulliken Net Atomic Charges

     Atom                 Charge (a.u.)    Spin (a.u.)
  --------------------------------------------------------
      1 C                    -0.246368       0.249487
      2 C                    -0.062128       0.043372
      3 C                    -0.143948       0.608053
      4 C                    -0.264555      -0.043960
      5 C                     0.018479       0.245058
      6 N                    -0.198880      -0.007505
      7 H                     0.142954      -0.009302
      8 H                     0.150712      -0.007245
      9 H                     0.152779      -0.004765
     10 H                     0.139643      -0.002844
     11 H                     0.128473      -0.013470
     12 C                     0.034159      -0.071957
     13 H                     0.148679       0.015078
  --------------------------------------------------------
  Sum of atomic charges =     0.000000

                    Cartesian Multipole Moments
 -----------------------------------------------------------------
    Charge (ESU x 10^10)
                -0.0000
    Dipole Moment (Debye)
         X      -1.3317      Y      -2.8890      Z       1.3596
       Tot       3.4595
    Quadrupole Moments (Debye-Ang)
        XX     -39.2562     XY      -4.6166     YY     -43.4928
        XZ       1.1180     YZ      -1.3536     ZZ     -44.2180

 Total job time:  119.49s(wall), 202.51s(cpu)
        *  Thank you very much for using Q-Chem.  Have a nice day.  *
