 Q-Chem 5.0, Q-Chem, Inc., Pleasanton, CA (2017)
 Q-Chem 5.0.2 for Intel X86 EM64T Linux

User input:
--------------------------------------------------------------
$molecule
0 2
C        1.3711856768    0.3868602538    0.2355029499
C        0.8002638969   -0.9477703272   -0.1724502981
C       -0.4941735811   -0.9013843347   -0.8609604505
C       -1.0666074416    0.2769533464   -0.0362311649
C       -0.4034644894    1.5669372487   -0.3780924200
N        0.8795386605    1.5940359911   -0.1992350254
H        2.4038512620    0.3831752873    0.5840751396
H        1.5155450733   -1.7656944508   -0.2283480979
H       -1.0360638277   -1.8251249241   -1.0486958219
H       -2.1610363870    0.3270009432    0.0389772020
H       -0.9334835374    2.4530820122   -0.7141074034
C       -0.2122962373   -0.5028562398    0.9852215075
H       -0.7241712676   -1.0855783533    1.7850490099
$end

$rem
method                b3lyp
basis                 6-31g(d)
unrestricted          true
symmetry              off
sym_ignore            true
incdft                false
incfock               0
scf_convergence       8
thresh                14
jobtype               freq
scf_guess             read
scf_algorithm         diis
max_scf_cycles        100
$end

--------------------------------------------------------------

             Standard Nuclear Orientation (Angstroms)
    I     Atom           X                Y                Z
 ----------------------------------------------------------------
    1      C       1.3711856768     0.3868602538     0.2355029499
    2      C       0.8002638969    -0.9477703272    -0.1724502981
    3      C      -0.4941735811    -0.9013843347    -0.8609604505
    4      C      -1.0666074416     0.2769533464    -0.0362311649
    5      C      -0.4034644894     1.5669372487    -0.3780924200
    6      N       0.8795386605     1.5940359911    -0.1992350254
    7      H       2.4038512620     0.3831752873     0.5840751396
    8      H       1.5155450733    -1.7656944508    -0.2283480979
    9      H      -1.0360638277    -1.8251249241    -1.0486958219
   10      H      -2.1610363870     0.3270009432     0.0389772020
   11      H      -0.9334835374     2.4530820122    -0.7141074034
   12      C      -0.2122962373    -0.5028562398     0.9852215075
   13      H      -0.7241712676    -1.0855783533     1.7850490099
 ----------------------------------------------------------------

    2    -286.7779100149      2.11E-09 Convergence criterion met
 Total energy in the final basis set = -286.77791001

                    Orbital Energies (a.u.)
 --------------------------------------------------------------

 Alpha MOs
 -- Occupied --
-14.315 -10.244 -10.230 -10.223 -10.217 -10.217 -10.205  -0.955
 -0.863  -0.748  -0.645  -0.619  -0.604  -0.540  -0.491  -0.446
 -0.439  -0.415  -0.412  -0.364  -0.360  -0.312  -0.264  -0.235
 -0.128

 Beta MOs
 -- Occupied --
-14.315 -10.245 -10.224 -10.222 -10.217 -10.208 -10.201  -0.950
 -0.859  -0.740  -0.636  -0.609  -0.600  -0.537  -0.486  -0.442
 -0.432  -0.410  -0.403  -0.357  -0.354  -0.296  -0.258  -0.226

          Ground-State Mulliken Net Atomic Charges

     Atom                 Charge (a.u.)    Spin (a.u.)
  --------------------------------------------------------
      1 C                     0.016102       0.340556
      2 C                    -0.164551       0.010071
      3 C                    -0.087790       0.603054
      4 C                    -0.264980      -0.019238
      5 C                     0.102551       0.291922
      6 N                    -0.359525      -0.052239
      7 H                     0.144311      -0.008118
      8 H                     0.154465      -0.003533
      9 H                     0.150699      -0.017985
     10 H                     0.144974      -0.000546
     11 H                     0.136432      -0.014672
     12 C                    -0.127645      -0.154565
     13 H                     0.154957       0.025291
  --------------------------------------------------------
  Sum of atomic charges =    -0.000000

                    Cartesian Multipole Moments
 -----------------------------------------------------------------
    Charge (ESU x 10^10)
                -0.0000
    Dipole Moment (Debye)
         X      -1.3078      Y      -2.6053      Z       0.6959
       Tot       2.9970
    Quadrupole Moments (Debye-Ang)
        XX     -37.6534     XY      -3.9501     YY     -42.1080
        XZ       0.3588     YZ      -0.4977     ZZ     -42.4730

 Frequency:     -1037.75                 207.03                 431.73
 Force Cnst:      2.6937                 0.1061                 0.3199
 Red. Mass:       4.2453                 4.1997                 2.9128
 IR Intens:      390.099                 25.157                  1.411
 Frequency:       483.01                 585.30                 646.64
 Force Cnst:      0.5531                 0.4314                 1.2033
 Red. Mass:       4.0242                 2.1374                 4.8843
 IR Intens:        7.436                 67.093                 12.892
 Frequency:       656.12                 713.58                 751.89
 Force Cnst:      0.7283                 0.8796                 0.5939
 Red. Mass:       2.8712                 2.9318                 1.7829
 IR Intens:        5.334                  5.177                  9.765
 Frequency:       792.14                 806.94                 877.42
 Force Cnst:      0.5191                 0.6705                 0.9296
 Red. Mass:       1.4042                 1.7476                 2.0494
 IR Intens:       25.643                  6.555                 12.012
 Frequency:       886.62                 941.79                 975.99
 Force Cnst:      0.7206                 1.4363                 2.2210
 Red. Mass:       1.5558                 2.7484                 3.9573
 IR Intens:       14.810                 32.521                  4.289
 Frequency:      1028.35                1036.59                1066.15
 Force Cnst:      0.8667                 1.3028                 0.9956
 Red. Mass:       1.3910                 2.0579                 1.4865
 IR Intens:        7.038                  5.467                  5.578
 Frequency:      1144.27                1180.92                1207.48
 Force Cnst:      1.2285                 1.1894                 1.3312
 Red. Mass:       1.5924                 1.4476                 1.5497
 IR Intens:        4.739                  7.754                  3.746
 Frequency:      1248.71                1332.14                1356.27
 Force Cnst:      1.5277                 1.4903                 1.9710
 Red. Mass:       1.6629                 1.4253                 1.8186
 IR Intens:        8.558                  8.621                 10.125
 Frequency:      1376.09                1399.57                1573.58
 Force Cnst:      2.3671                 2.2134                 6.9216
 Red. Mass:       2.1217                 1.9179                 4.7444
 IR Intens:        6.913                  7.073                 41.599
 Frequency:      2934.54                3078.10                3163.55
 Force Cnst:      5.5424                 6.0814                 6.4162
 Red. Mass:       1.0924                 1.0894                 1.0881
 IR Intens:       24.533                 19.961                 12.500
 Frequency:      3183.30                3196.79                3206.61
 Force Cnst:      6.4968                 6.5881                 6.6173
 Red. Mass:       1.0882                 1.0942                 1.0923
 IR Intens:       16.143                  9.402                 11.521

 STANDARD THERMODYNAMIC QUANTITIES AT   298.15 K  AND     1.00 ATM

   This Molecule has  1 Imaginary Frequencies
   Zero point vibrational energy:       62.142 kcal/mol

   Atom    1 Element C  Has Mass   12.00000
   Atom    2 Element C  Has Mass   12.00000
   Atom    3 Element C  Has Mass   12.00000
   Atom    4 Element C  Has Mass   12.00000
   Atom    5 Element C  Has Mass   12.00000
   Atom    6 Element N  Has Mass   14.00307
   Atom    7 Element H  Has Mass    1.00783
   Atom    8 Element H  Has Mass    1.00783
   Atom    9 Element H  Has Mass    1.00783
   Atom   10 Element H  Has Mass    1.00783
   Atom   11 Element H  Has Mass    1.00783
   Atom   12 Element C  Has Mass   12.00000
   Atom   13 Element H  Has Mass    1.00783
   Molecular Mass:    92.050050 amu
   Principal axes and moments of inertia in amu*Bohr^2:
                             1           2           3
    Eigenvalues --      359.25539   467.19721   631.75409
          X               0.24948     0.95572    -0.15610
          Y               0.96726    -0.23819     0.08756
          Z              -0.04650     0.17284     0.98385
   Rotational Symmetry Number is   1
   The Molecule is an Asymmetric Top
   Translational Enthalpy:        0.889 kcal/mol
   Rotational Enthalpy:           0.889 kcal/mol
   Vibrational Enthalpy:         63.562 kcal/mol
   gas constant (RT):             0.592 kcal/mol
   Translational Entropy:        39.471  cal/mol.K
   Rotational Entropy:           26.164  cal/mol.K
   Vibrational Entropy:           6.815  cal/mol.K

   Total Enthalpy:               65.932 kcal/mol
   Total Entropy:                72.449  cal/mol.K

 Total job time:  309.29s(wall), 264.02s(cpu)
        *  Thank you very much for using Q-Chem.  Have a nice day.  *
