 Q-Chem 5.0, Q-Chem, Inc., Pleasanton, CA (2017)
 Q-Chem 5.0.2 for Intel X86 EM64T Linux

User input:
--------------------------------------------------------------
$molecule
0 2
C        1.3711856768    0.3868602538    0.2355029499
C        0.8002638969   -0.9477703272   -0.1724502981
C       -0.4941735811   -0.9013843347   -0.8609604505
C       -1.0666074416    0.2769533464   -0.0362311649
C       -0.4034644894    1.5669372487   -0.3780924200
N        0.8795386605    1.5940359911   -0.1992350254
H        2.4038512620    0.3831752873    0.5840751396
H        1.5155450733   -1.7656944508   -0.2283480979
H       -1.0360638277   -1.8251249241   -1.0486958219
H       -2.1610363870    0.3270009432    0.0389772020
H       -0.9334835374    2.4530820122   -0.7141074034
C       -0.2122962373   -0.5028562398    0.9852215075
H       -0.7241712676   -1.0855783533    1.7850490099
$end

$rem
method                b3lyp
basis                 6-31g(d)
unrestricted          true
symmetry              off
sym_ignore            true
incdft                false
incfock               0
scf_convergence       8
thresh                14
jobtype               sp
scf_guess             core
scf_guess_mix         5
scf_algorithm         diis
max_scf_cycles        100
$end

--------------------------------------------------------------

             Standard Nuclear Orientation (Angstroms)
    I     Atom           X                Y                Z
 ----------------------------------------------------------------
    1      C       1.3711856768     0.3868602538     0.2355029499
    2      C       0.8002638969    -0.9477703272    -0.1724502981
    3      C      -0.4941735811    -0.9013843347    -0.8609604505
    4      C      -1.0666074416     0.2769533464    -0.0362311649
    5      C      -0.4034644894     1.5669372487    -0.3780924200
    6      N       0.8795386605     1.5940359911    -0.1992350254
    7      H       2.4038512620     0.3831752873     0.5840751396
    8      H       1.5155450733    -1.7656944508    -0.2283480979
    9      H      -1.0360638277    -1.8251249241    -1.0486958219
   10      H      -2.1610363870     0.3270009432     0.0389772020
   11      H      -0.9334835374     2.4530820122    -0.7141074034
   12      C      -0.2122962373    -0.5028562398     0.9852215075
   13      H      -0.7241712676    -1.0855783533     1.7850490099
 ----------------------------------------------------------------

   23    -286.7779100149      4.65E-09 Convergence criterion met
 Total energy in the final basis set = -286.77791001

                    Orbital Energies (a.u.)
 --------------------------------------------------------------

 Alpha MOs
 -- Occupied --
-14.315 -10.244 -10.230 -10.223 -10.217 -10.217 -10.205  -0.955
 -0.863  -0.748  -0.645  -0.619  -0.604  -0.540  -0.491  -0.446
 -0.439  -0.415  -0.412  -0.364  -0.360  -0.312  -0.264  -0.235
 -0.128

 Beta MOs
 -- Occupied --
-14.315 -10.245 -10.224 -10.222 -10.217 -10.208 -10.201  -0.950
 -0.859  -0.740  -0.636  -0.609  -0.600  -0.537  -0.486  -0.442
 -0.432  -0.410  -0.403  -0.357  -0.354  -0.296  -0.258  -0.226

          Ground-State Mulliken Net Atomic Charges

     Atom                 Charge (a.u.)    Spin (a.u.)
  --------------------------------------------------------
      1 C                     0.016102       0.340559
      2 C                    -0.164551       0.010071
      3 C                    -0.087790       0.603056
      4 C                    -0.264980      -0.019238
      5 C                     0.102551       0.291924
      6 N                    -0.359525      -0.052240
      7 H                     0.144311      -0.008118
      8 H                     0.154465      -0.003533
      9 H                     0.150699      -0.017985
     10 H                     0.144974      -0.000546
     11 H                     0.136432      -0.014672
     12 C                    -0.127644      -0.154569
     13 H                     0.154957       0.025292
  --------------------------------------------------------
  Sum of atomic charges =    -0.000000

                    Cartesian Multipole Moments
 -----------------------------------------------------------------
    Charge (ESU x 10^10)
                -0.0000
    Dipole Moment (Debye)
         X      -1.3078      Y      -2.6053      Z       0.6959
       Tot       2.9970
    Quadrupole Moments (Debye-Ang)
        XX     -37.6534     XY      -3.9501     YY     -42.1080
        XZ       0.3588     YZ      -0.4977     ZZ     -42.4730

 Total job time:  60.73s(wall), 62.00s(cpu)
        *  Thank you very much for using Q-Chem.  Have a nice day.  *
