 Q-Chem 5.0, Q-Chem, Inc., Pleasanton, CA (2017)
 Q-Chem 5.0.2 for Intel X86 EM64T Linux

User input:
--------------------------------------------------------------
$molecule
0 2
C        1.3542003206    0.3995924955    0.2294977592
C        0.8129720329   -0.9194641018   -0.2379946595
C       -0.5249928943   -0.8761636033   -0.8946753331
C       -1.0756454759    0.3189177532   -0.0458480461
C       -0.4066826333    1.5890078753   -0.3993323935
N        0.8845153309    1.6115391608   -0.1974919676
H        2.2556847122    0.3665544144    0.8331293332
H        1.4292310131   -1.8109877188   -0.2007777914
H       -1.0836612633   -1.8110997420   -0.9272774856
H       -2.1460786261    0.3339818740    0.1475323030
H       -0.9238215620    2.4384986760   -0.8347693021
C       -0.1589904230   -0.5299168238    0.8419242501
H       -0.4776427313   -1.1508238068    1.6767884602
$end

$rem
method                b3lyp
basis                 6-31+g(d,p)
unrestricted          true
symmetry              off
sym_ignore            true
incdft                false
incfock               0
scf_convergence       6
thresh                14
jobtype               sp
scf_guess             read
scf_algorithm         diis
max_scf_cycles        100
stability_analysis    true
max_cis_cycles        100
cis_n_roots           4
$end

--------------------------------------------------------------

             Standard Nuclear Orientation (Angstroms)
    I     Atom           X                Y                Z
 ----------------------------------------------------------------
    1      C       1.3542003206     0.3995924955     0.2294977592
    2      C       0.8129720329    -0.9194641018    -0.2379946595
    3      C      -0.5249928943    -0.8761636033    -0.8946753331
    4      C      -1.0756454759     0.3189177532    -0.0458480461
    5      C      -0.4066826333     1.5890078753    -0.3993323935
    6      N       0.8845153309     1.6115391608    -0.1974919676
    7      H       2.2556847122     0.3665544144     0.8331293332
    8      H       1.4292310131    -1.8109877188    -0.2007777914
    9      H      -1.0836612633    -1.8110997420    -0.9272774856
   10      H      -2.1460786261     0.3339818740     0.1475323030
   11      H      -0.9238215620     2.4384986760    -0.8347693021
   12      C      -0.1589904230    -0.5299168238     0.8419242501
   13      H      -0.4776427313    -1.1508238068     1.6767884602
 ----------------------------------------------------------------

    2    -286.8141289545      7.84E-10 Convergence criterion met
 Total energy in the final basis set = -286.81412895

         TDDFT/TDA Excitation Energies
 ---------------------------------------------------

 Excited state   1: excitation energy (eV) =    1.7162
 Total energy for state  1:                  -286.75105951 au
    <S**2>     :  0.7766
    Trans. Mom.: -0.1098 X  -0.6530 Y  -0.2048 Z
    Strength   :     0.0201992064
    S(  1) --> V(  1) amplitude =  0.9721 alpha
    D( 24) --> S(  1) amplitude = -0.1621 beta

 Excited state   2: excitation energy (eV) =    2.6483
 Total energy for state  2:                  -286.71680568 au
    <S**2>     :  0.7883
    Trans. Mom.:  0.1475 X   0.3047 Y  -0.2103 Z
    Strength   :     0.0103065202
    S(  1) --> V(  2) amplitude =  0.9951 alpha

 Excited state   3: excitation energy (eV) =    3.1253
 Total energy for state  3:                  -286.69927602 au
    <S**2>     :  0.8038
    Trans. Mom.: -0.2594 X   0.1565 Y   0.0239 Z
    Strength   :     0.0070732875
    S(  1) --> V(  3) amplitude =  0.7986 alpha
    S(  1) --> V(  4) amplitude = -0.5203 alpha
    S(  1) --> V(  6) amplitude = -0.1616 alpha

 Excited state   4: excitation energy (eV) =    3.3235
 Total energy for state  4:                  -286.69199095 au
    <S**2>     :  0.7881
    Trans. Mom.: -0.1292 X   0.1274 Y  -0.0299 Z
    Strength   :     0.0027554525
    S(  1) --> V(  3) amplitude =  0.5552 alpha
    S(  1) --> V(  4) amplitude =  0.8272 alpha

 ---------------------------------------------------

                    Orbital Energies (a.u.)
 --------------------------------------------------------------

 Alpha MOs
 -- Occupied --
-14.331 -10.252 -10.246 -10.232 -10.230 -10.228 -10.219  -0.979
 -0.888  -0.767  -0.655  -0.636  -0.613  -0.557  -0.506  -0.461
 -0.450  -0.433  -0.422  -0.380  -0.374  -0.321  -0.280  -0.257
 -0.137

 Beta MOs
 -- Occupied --
-14.331 -10.253 -10.243 -10.228 -10.227 -10.224 -10.215  -0.974
 -0.883  -0.760  -0.648  -0.627  -0.610  -0.553  -0.501  -0.458
 -0.443  -0.430  -0.412  -0.374  -0.366  -0.303  -0.273  -0.247

          Ground-State Mulliken Net Atomic Charges

     Atom                 Charge (a.u.)    Spin (a.u.)
  --------------------------------------------------------
      1 C                    -0.246368       0.249487
      2 C                    -0.062128       0.043371
      3 C                    -0.143948       0.608052
      4 C                    -0.264555      -0.043961
      5 C                     0.018479       0.245058
      6 N                    -0.198880      -0.007505
      7 H                     0.142954      -0.009302
      8 H                     0.150712      -0.007245
      9 H                     0.152779      -0.004765
     10 H                     0.139643      -0.002844
     11 H                     0.128473      -0.013470
     12 C                     0.034159      -0.071955
     13 H                     0.148679       0.015078
  --------------------------------------------------------
  Sum of atomic charges =     0.000000

                    Cartesian Multipole Moments
 -----------------------------------------------------------------
    Charge (ESU x 10^10)
                -0.0000
    Dipole Moment (Debye)
         X      -1.3317      Y      -2.8890      Z       1.3596
       Tot       3.4595
    Quadrupole Moments (Debye-Ang)
        XX     -39.2562     XY      -4.6166     YY     -43.4928
        XZ       1.1180     YZ      -1.3536     ZZ     -44.2180

 Total job time:  281.67s(wall), 186.42s(cpu)
        *  Thank you very much for using Q-Chem.  Have a nice day.  *
