 Q-Chem 5.0, Q-Chem, Inc., Pleasanton, CA (2017)
 Q-Chem 5.0.2 for Intel X86 EM64T Linux

User input:
--------------------------------------------------------------
$molecule
0 2
C        1.4339930286    0.0862246779   -0.6682751447
C        0.5394519822   -1.1140444095   -0.9877659915
C       -0.9121406179   -0.6520508850   -1.9883266982
C       -1.3176614904   -0.1108016611   -0.3838589979
C       -0.7420669267    0.7475291125   -1.4867995370
N        0.8717429580    1.2365050374   -1.4028428874
H        2.3060070241    0.0962589072    0.0477922370
H        0.6672304818   -2.2179082920   -0.9974670905
H       -1.5374807660   -0.7133541782   -3.0060700739
H       -2.3601456858   -0.0114029987   -0.0891949075
H       -1.3410447544    1.6877870597   -1.6306169802
C        0.0994533368   -0.3146323037    0.3065191176
H        0.5591577552   -0.4683919271    1.2250823617
$end

$rem
method                b3lyp
basis                 6-31g(d)
unrestricted          true
symmetry              off
sym_ignore            true
incdft                false
incfock               0
scf_convergence       8
thresh                14
jobtype               opt
scf_guess             read
scf_algorithm         diis
max_scf_cycles        100
geom_opt_tol_gradient 600
geom_opt_tol_displacement 2400
geom_opt_tol_energy   200
geom_opt_max_cycles   100
$end

--------------------------------------------------------------

    2    -286.6463204927      9.33E-10 Convergence criterion met
 Total energy in the final basis set = -286.64632049
   15    -286.6872270487      3.42E-09 Convergence criterion met
 Total energy in the final basis set = -286.68722705
   15    -286.7220306615      2.54E-09 Convergence criterion met
 Total energy in the final basis set = -286.72203066
   14    -286.7496360909      7.45E-09 Convergence criterion met
 Total energy in the final basis set = -286.74963609
   14    -286.7710994604      9.48E-09 Convergence criterion met
 Total energy in the final basis set = -286.77109946
   14    -286.7873406106      5.40E-09 Convergence criterion met
 Total energy in the final basis set = -286.78734061
   14    -286.7993971421      3.15E-09 Convergence criterion met
 Total energy in the final basis set = -286.79939714
   13    -286.8082515613      9.66E-09 Convergence criterion met
   12    -286.8222762528      7.91E-09 Convergence criterion met
 Total energy in the final basis set = -286.82227625
   12    -286.8240733316      6.03E-09 Convergence criterion met
 Total energy in the final basis set = -286.82407333
   12    -286.8248426888      5.30E-09 Convergence criterion met
 Total energy in the final basis set = -286.82484269
   11    -286.8249337534      7.60E-09 Convergence criterion met
 Total energy in the final basis set = -286.82493375
   11    -286.8249579261      5.62E-09 Convergence criterion met
 Total energy in the final basis set = -286.82495793
   11    -286.8249620093      7.09E-09 Convergence criterion met
 Total energy in the final basis set = -286.82496201

             Standard Nuclear Orientation (Angstroms)
    I     Atom           X                Y                Z
 ----------------------------------------------------------------
    1      C       1.1782186945     0.1439340390    -0.5810472828
    2      C       0.4642216479    -1.1364016042    -1.0562171707
    3      C      -0.8141180281    -0.5645803928    -1.7191012512
    4      C      -1.2156364309     0.0553905769    -0.4099287989
    5      C      -0.6296960887     0.9521325462    -1.5174238588
    6      N       0.7192399815     1.2923571042    -1.2655494469
    7      H       2.2097056940     0.1081567855    -0.2482084685
    8      H       0.9710722595    -2.0707510367    -1.2699327377
    9      H      -1.4155717937    -1.0044528109    -2.5066146629
   10      H      -2.1948508998     0.1984954816     0.0330456378
   11      H      -1.2599888075     1.6596637686    -2.0446891314
   12      C       0.0628182157    -0.5159236736     0.2528814404
   13      H       0.1910818811    -0.8663026443     1.2709611391
 ----------------------------------------------------------------

   10    -286.8249631105      8.81E-09 Convergence criterion met
 Total energy in the final basis set = -286.82496311
 Final energy is   -286.824963110502
 **  OPTIMIZATION CONVERGED  **

                    Orbital Energies (a.u.)
 --------------------------------------------------------------

 Alpha MOs
 -- Occupied --
-14.335 -10.215 -10.215 -10.207 -10.207 -10.207 -10.206  -0.986
 -0.837  -0.793  -0.649  -0.588  -0.574  -0.542  -0.533  -0.455
 -0.427  -0.415  -0.395  -0.384  -0.337  -0.275  -0.274  -0.248
 -0.212

 Beta MOs
 -- Occupied --
-14.319 -10.216 -10.216 -10.205 -10.205 -10.205 -10.205  -0.976
 -0.812  -0.789  -0.644  -0.585  -0.569  -0.537  -0.529  -0.453
 -0.423  -0.392  -0.389  -0.378  -0.322  -0.269  -0.257  -0.244

          Ground-State Mulliken Net Atomic Charges

     Atom                 Charge (a.u.)    Spin (a.u.)
  --------------------------------------------------------
      1 C                    -0.044808      -0.080363
      2 C                    -0.124664       0.089342
      3 C                    -0.125015       0.089396
      4 C                    -0.124725       0.089059
      5 C                    -0.044714      -0.080278
      6 N                    -0.285900       0.811262
      7 H                     0.149293       0.001045
      8 H                     0.144016      -0.002495
      9 H                     0.144002      -0.002498
     10 H                     0.144009      -0.002481
     11 H                     0.149319       0.001045
     12 C                    -0.124752       0.089460
     13 H                     0.143939      -0.002496
  --------------------------------------------------------
  Sum of atomic charges =    -0.000000

                    Cartesian Multipole Moments
 -----------------------------------------------------------------
    Charge (ESU x 10^10)
                -0.0000
    Dipole Moment (Debye)
         X      -1.1564      Y      -1.9342      Z       0.5627
       Tot       2.3227
    Quadrupole Moments (Debye-Ang)
        XX     -37.8277     XY      -3.5886     YY     -42.8666
        XZ       3.2222     YZ       2.1838     ZZ     -40.0498

 Total job time:  588.14s(wall), 702.69s(cpu)
        *  Thank you very much for using Q-Chem.  Have a nice day.  *
