 Q-Chem 5.0, Q-Chem, Inc., Pleasanton, CA (2017)
 Q-Chem 5.0.2 for Intel X86 EM64T Linux

User input:
--------------------------------------------------------------
$molecule
0 2
C        1.6329386129    0.3806114728   -1.7914611614
C        0.7919354169   -0.9768722699   -1.5283684801
C       -0.6343265214   -0.6252005727   -1.9787808839
C       -1.1628151458    0.3260693158   -0.6267483545
C       -0.5655396680    0.7101944240   -2.1254713781
N        0.6991759367    1.2623186985   -2.0500214324
H        2.6956995944    0.3692470724   -2.0621263511
H        1.1001163427   -2.0442628587   -1.5196584163
H       -1.1489813788   -1.0742289367   -2.9240055991
H       -2.1490075244    0.6884039843   -0.3926642368
H       -1.4821817065    1.1848590060   -2.5225765675
C       -0.7585898811   -1.1056784850   -0.3329355792
H       -0.7362219036   -1.9062526704    0.2885804681
$end

$rem
method                b3lyp
basis                 6-31g(d)
unrestricted          true
symmetry              off
sym_ignore            true
incdft                false
incfock               0
scf_convergence       8
thresh                14
jobtype               opt
scf_guess             read
scf_algorithm         diis
max_scf_cycles        100
geom_opt_tol_gradient 600
geom_opt_tol_displacement 2400
geom_opt_tol_energy   200
geom_opt_max_cycles   100
$end

--------------------------------------------------------------

    2    -286.6557927704      3.60E-09 Convergence criterion met
 Total energy in the final basis set = -286.65579277
   17    -286.6980225546      4.97E-09 Convergence criterion met
 Total energy in the final basis set = -286.69802255
   17    -286.7302530169      5.56E-09 Convergence criterion met
 Total energy in the final basis set = -286.73025302
   17    -286.7572147449      4.02E-09 Convergence criterion met
 Total energy in the final basis set = -286.75721474
   16    -286.7798007994      5.11E-09 Convergence criterion met
 Total energy in the final basis set = -286.77980080
   15    -286.7978675367      6.10E-09 Convergence criterion met
 Total energy in the final basis set = -286.79786754
   14    -286.8115066420      5.84E-09 Convergence criterion met
 Total energy in the final basis set = -286.81150664
   13    -286.8212546052      7.43E-09 Convergence criterion met
   12    -286.8357281060      7.77E-09 Convergence criterion met
 Total energy in the final basis set = -286.83572811
   12    -286.8363403087      7.81E-09 Convergence criterion met
 Total energy in the final basis set = -286.83634031
   11    -286.8364461019      5.24E-09 Convergence criterion met
 Total energy in the final basis set = -286.83644610
   11    -286.8364891706      3.09E-09 Convergence criterion met
 Total energy in the final basis set = -286.83648917
   10    -286.8364947400      4.99E-09 Convergence criterion met
 Total energy in the final basis set = -286.83649474
   10    -286.8364975756      5.35E-09 Convergence criterion met
 Total energy in the final basis set = -286.83649758

             Standard Nuclear Orientation (Angstroms)
    I     Atom           X                Y                Z
 ----------------------------------------------------------------
    1      C       1.4309653638     0.2690988214    -1.7851760786
    2      C       0.7100455921    -1.0157583308    -1.5477355713
    3      C      -0.6372819484    -0.8380967292    -2.1680968915
    4      C      -1.0381169813     0.4710468882    -0.5462545988
    5      C      -0.7157362104     0.7289207067    -2.0240411845
    6      N       0.6716850999     1.2515995577    -2.0978718692
    7      H       2.5074947430     0.3931119010    -1.6724644878
    8      H       1.2114844344    -1.9787239103    -1.5571452119
    9      H      -1.1383806640    -1.4963419126    -2.8718077688
   10      H      -1.9561517041     0.7712697702    -0.0535716353
   11      H      -1.4140695861     1.3086009603    -2.6271941533
   12      C      -0.5588542965    -0.9214046667    -0.6354958166
   13      H      -0.7908816683    -1.7541148756     0.0206172952
 ----------------------------------------------------------------

    9    -286.8364988838      8.07E-09 Convergence criterion met
 Total energy in the final basis set = -286.83649888
 Final energy is   -286.836498883846
 **  OPTIMIZATION CONVERGED  **

                    Orbital Energies (a.u.)
 --------------------------------------------------------------

 Alpha MOs
 -- Occupied --
-14.318 -10.220 -10.220 -10.215 -10.212 -10.211 -10.194  -0.964
 -0.858  -0.746  -0.657  -0.608  -0.575  -0.540  -0.512  -0.463
 -0.429  -0.412  -0.388  -0.366  -0.329  -0.315  -0.266  -0.256
 -0.174

 Beta MOs
 -- Occupied --
-14.317 -10.221 -10.220 -10.216 -10.211 -10.210 -10.181  -0.961
 -0.854  -0.737  -0.646  -0.602  -0.571  -0.538  -0.501  -0.461
 -0.425  -0.406  -0.385  -0.362  -0.317  -0.303  -0.263  -0.254

          Ground-State Mulliken Net Atomic Charges

     Atom                 Charge (a.u.)    Spin (a.u.)
  --------------------------------------------------------
      1 C                     0.096374       0.006105
      2 C                    -0.192149       0.035688
      3 C                    -0.107080       0.108188
      4 C                    -0.071487       0.951458
      5 C                    -0.099702      -0.042754
      6 N                    -0.337259       0.012623
      7 H                     0.143840       0.003966
      8 H                     0.148717       0.001427
      9 H                     0.149632       0.008650
     10 H                     0.139276      -0.039105
     11 H                     0.141968       0.005247
     12 C                    -0.161798      -0.051777
     13 H                     0.149669       0.000282
  --------------------------------------------------------
  Sum of atomic charges =    -0.000000

                    Cartesian Multipole Moments
 -----------------------------------------------------------------
    Charge (ESU x 10^10)
                -0.0000
    Dipole Moment (Debye)
         X      -0.7963      Y      -2.7263      Z       0.1372
       Tot       2.8435
    Quadrupole Moments (Debye-Ang)
        XX     -36.7928     XY      -2.4140     YY     -42.0184
        XZ       1.8740     YZ       4.6388     ZZ     -41.5069

 Total job time:  545.48s(wall), 766.37s(cpu)
        *  Thank you very much for using Q-Chem.  Have a nice day.  *
