 Q-Chem 5.0, Q-Chem, Inc., Pleasanton, CA (2017)
 Q-Chem 5.0.2 for Intel X86 EM64T Linux

User input:
--------------------------------------------------------------
$molecule
0 2
C        1.5189874062    0.3441588063   -0.2644252994
C        0.6216192586   -0.8944701024   -0.0647318007
C       -0.3948716278   -0.5208172525   -1.1474916430
C       -1.0026577606    0.5083552418    0.8086557238
C       -0.5872412418    0.8947648274   -0.6197781154
N        0.8524697132    1.3865955360   -0.5761305058
H        2.5997530457    0.3578848315   -0.1336547130
H        1.1020933072   -1.8728860788   -0.0775504506
H       -1.2194040131   -1.1747379185   -1.4269638383
H       -1.7237658678    1.0470917705    1.4134949852
H       -1.2335871503    1.5920977564   -1.1505755036
C       -0.2723898965   -0.5664110507    1.1480186723
H       -0.2610051735   -1.1016263668    2.0911324881
$end

$rem
method                b3lyp
basis                 6-31g(d)
unrestricted          true
symmetry              off
sym_ignore            true
incdft                false
incfock               0
scf_convergence       8
thresh                14
jobtype               opt
scf_guess             read
scf_algorithm         diis
max_scf_cycles        100
geom_opt_tol_gradient 600
geom_opt_tol_displacement 2400
geom_opt_tol_energy   200
geom_opt_max_cycles   100
$end

--------------------------------------------------------------

    2    -286.8516345402      5.97E-10 Convergence criterion met
 Total energy in the final basis set = -286.85163454

             Standard Nuclear Orientation (Angstroms)
    I     Atom           X                Y                Z
 ----------------------------------------------------------------
    1      C       1.5196064296     0.3442176422    -0.2647498679
    2      C       0.6221911224    -0.8940405164    -0.0646369849
    3      C      -0.3952253208    -0.5208002518    -1.1471709844
    4      C      -1.0024397321     0.5090488435     0.8088329618
    5      C      -0.5865610915     0.8950915488    -0.6196965529
    6      N       0.8529936774     1.3866026426    -0.5763721274
    7      H       2.6004537192     0.3578173107    -0.1347298966
    8      H       1.1022839772    -1.8726391408    -0.0770508754
    9      H      -1.2205007105    -1.1745351644    -1.4247168375
   10      H      -1.7260969896     1.0452223517     1.4129090336
   11      H      -1.2326902864     1.5924616861    -1.1507045078
   12      C      -0.2723699989    -0.5660417286     1.1477718503
   13      H      -0.2616447966    -1.1024052234     2.0903147886
 ----------------------------------------------------------------

   10    -286.8516361592      5.52E-09 Convergence criterion met
 Total energy in the final basis set = -286.85163616
 Final energy is   -286.851636159166
 **  OPTIMIZATION CONVERGED  **

                    Orbital Energies (a.u.)
 --------------------------------------------------------------

 Alpha MOs
 -- Occupied --
-14.322 -10.224 -10.220 -10.210 -10.204 -10.201 -10.197  -0.952
 -0.821  -0.726  -0.705  -0.579  -0.573  -0.531  -0.512  -0.472
 -0.418  -0.410  -0.381  -0.373  -0.348  -0.294  -0.271  -0.258
 -0.196

 Beta MOs
 -- Occupied --
-14.321 -10.224 -10.221 -10.210 -10.200 -10.196 -10.190  -0.949
 -0.815  -0.725  -0.690  -0.577  -0.561  -0.527  -0.509  -0.463
 -0.414  -0.406  -0.379  -0.369  -0.342  -0.287  -0.261  -0.255

          Ground-State Mulliken Net Atomic Charges

     Atom                 Charge (a.u.)    Spin (a.u.)
  --------------------------------------------------------
      1 C                     0.092119      -0.008839
      2 C                    -0.245813      -0.044021
      3 C                    -0.096643       0.976118
      4 C                    -0.088107       0.040416
      5 C                    -0.094688      -0.045227
      6 N                    -0.324975       0.022154
      7 H                     0.149667      -0.000172
      8 H                     0.133872       0.002856
      9 H                     0.138953      -0.026712
     10 H                     0.146058       0.000878
     11 H                     0.139808       0.003024
     12 C                    -0.095836       0.079217
     13 H                     0.145588       0.000310
  --------------------------------------------------------
  Sum of atomic charges =    -0.000000

                    Cartesian Multipole Moments
 -----------------------------------------------------------------
    Charge (ESU x 10^10)
                -0.0000
    Dipole Moment (Debye)
         X      -0.7008      Y      -1.9432      Z       1.1696
       Tot       2.3738
    Quadrupole Moments (Debye-Ang)
        XX     -37.5387     XY      -3.9690     YY     -43.0229
        XZ       1.0758     YZ       0.6273     ZZ     -40.9112

 Total job time:  13.81s(wall), 47.82s(cpu)
        *  Thank you very much for using Q-Chem.  Have a nice day.  *
