 Q-Chem 5.0, Q-Chem, Inc., Pleasanton, CA (2017)
 Q-Chem 5.0.2 for Intel X86 EM64T Linux

User input:
--------------------------------------------------------------
$molecule
0 2
C        1.6064845043    0.3444833159   -1.7149379120
C        0.7408506054   -0.9723608192   -1.4565941339
C       -0.5965185002   -0.6321443548   -1.9749461388
C       -1.1200826837    0.3139962003   -0.6148061925
C       -0.5492321324    0.7454675640   -2.1437673055
N        0.6295271429    1.2720877831   -1.9736791638
H        2.6380532528    0.2298532222   -2.0721182564
H        1.0142282797   -2.0396508558   -1.5689005711
H       -1.2368238782   -0.8640042586   -2.8103030259
H       -2.0881102061    0.7567263215   -0.3991699452
H       -1.4048674740    1.2826541289   -2.5933574982
C       -0.6985728928   -1.1280076529   -0.2558592515
H       -0.6198539958   -1.8347840831    0.5572819768
$end

$rem
method                b3lyp
basis                 6-31g(d)
unrestricted          true
symmetry              off
sym_ignore            true
incdft                false
incfock               0
scf_convergence       8
thresh                14
jobtype               opt
scf_guess             read
scf_algorithm         diis
max_scf_cycles        100
geom_opt_tol_gradient 600
geom_opt_tol_displacement 2400
geom_opt_tol_energy   200
geom_opt_max_cycles   100
$end

--------------------------------------------------------------

    2    -286.6359586858      1.05E-09 Convergence criterion met
 Total energy in the final basis set = -286.63595869
   18    -286.6749677044      3.38E-09 Convergence criterion met
 Total energy in the final basis set = -286.67496770
   17    -286.7055173417      5.80E-09 Convergence criterion met
 Total energy in the final basis set = -286.70551734
   15    -286.7306690275      9.25E-09 Convergence criterion met
 Total energy in the final basis set = -286.73066903
   16    -286.7529313460      6.92E-09 Convergence criterion met
 Total energy in the final basis set = -286.75293135
   15    -286.7729725424      6.11E-09 Convergence criterion met
 Total energy in the final basis set = -286.77297254
   15    -286.7900846911      4.90E-09 Convergence criterion met
 Total energy in the final basis set = -286.79008469
   14    -286.8036692716      5.66E-09 Convergence criterion met
   11    -286.8364270756      6.78E-09 Convergence criterion met
 Total energy in the final basis set = -286.83642708
   11    -286.8364444846      2.69E-09 Convergence criterion met
 Total energy in the final basis set = -286.83644448
   11    -286.8364661177      3.42E-09 Convergence criterion met
 Total energy in the final basis set = -286.83646612
   10    -286.8364809610      9.73E-09 Convergence criterion met
 Total energy in the final basis set = -286.83648096
   10    -286.8364879117      8.12E-09 Convergence criterion met
 Total energy in the final basis set = -286.83648791
   10    -286.8364925738      8.05E-09 Convergence criterion met
 Total energy in the final basis set = -286.83649257

             Standard Nuclear Orientation (Angstroms)
    I     Atom           X                Y                Z
 ----------------------------------------------------------------
    1      C       1.4422507061     0.2388520413    -1.7716041984
    2      C       0.6855754623    -1.0216722969    -1.5142091443
    3      C      -0.6651928059    -0.8063035042    -2.1145266049
    4      C      -0.9968793842     0.5283295432    -0.4958155523
    5      C      -0.6923866802     0.7642371203    -1.9805184525
    6      N       0.7085456027     1.2423082542    -2.0789500524
    7      H       2.5237521730     0.3302604126    -1.6768926440
    8      H       1.1551959251    -2.0006144109    -1.5232170710
    9      H      -1.1954480592    -1.4526929933    -2.8079486586
   10      H      -1.8857409279     0.8714963112     0.0211431558
   11      H      -1.3813661994     1.3609039248    -2.5780772333
   12      C      -0.5674603391    -0.8804153679    -0.5831900847
   13      H      -0.8157634515    -1.7003725229     0.0826491226
 ----------------------------------------------------------------

   10    -286.8364945707      4.59E-09 Convergence criterion met
 Total energy in the final basis set = -286.83649457
 Final energy is   -286.836494570663
 **  OPTIMIZATION CONVERGED  **

                    Orbital Energies (a.u.)
 --------------------------------------------------------------

 Alpha MOs
 -- Occupied --
-14.317 -10.220 -10.220 -10.215 -10.212 -10.211 -10.194  -0.964
 -0.858  -0.746  -0.657  -0.607  -0.574  -0.540  -0.512  -0.463
 -0.429  -0.412  -0.388  -0.366  -0.328  -0.315  -0.266  -0.256
 -0.174

 Beta MOs
 -- Occupied --
-14.317 -10.221 -10.220 -10.216 -10.211 -10.210 -10.181  -0.961
 -0.854  -0.737  -0.646  -0.602  -0.571  -0.538  -0.501  -0.461
 -0.425  -0.406  -0.384  -0.362  -0.317  -0.303  -0.262  -0.254

          Ground-State Mulliken Net Atomic Charges

     Atom                 Charge (a.u.)    Spin (a.u.)
  --------------------------------------------------------
      1 C                     0.096422       0.007080
      2 C                    -0.192693       0.037266
      3 C                    -0.106660       0.107449
      4 C                    -0.071129       0.952815
      5 C                    -0.099787      -0.043749
      6 N                    -0.337253       0.012540
      7 H                     0.143785       0.003944
      8 H                     0.148649       0.001435
      9 H                     0.149451       0.008533
     10 H                     0.139554      -0.039607
     11 H                     0.141853       0.005531
     12 C                    -0.161732      -0.053651
     13 H                     0.149540       0.000414
  --------------------------------------------------------
  Sum of atomic charges =     0.000000

                    Cartesian Multipole Moments
 -----------------------------------------------------------------
    Charge (ESU x 10^10)
                 0.0000
    Dipole Moment (Debye)
         X      -0.8798      Y      -2.6829      Z       0.1818
       Tot       2.8293
    Quadrupole Moments (Debye-Ang)
        XX     -36.9755     XY      -2.6095     YY     -41.9295
        XZ       1.9153     YZ       4.5280     ZZ     -41.6120

 Total job time:  634.62s(wall), 1003.10s(cpu)
        *  Thank you very much for using Q-Chem.  Have a nice day.  *
