 Q-Chem 5.0, Q-Chem, Inc., Pleasanton, CA (2017)
 Q-Chem 5.0.2 for Intel X86 EM64T Linux

User input:
--------------------------------------------------------------
$molecule
0 2
C        1.6627116761    0.3778067110   -0.5006337762
C        1.0782104491   -0.8976388011   -0.4485777725
C       -0.4036204346   -0.7278291279   -0.3764570402
C       -1.1104355262    0.7382854164    0.9862889302
C       -0.5199593501    0.8483638854   -0.4196107024
N        0.8250850576    1.4099223014   -0.4883141472
H        2.7357840270    0.5630120403   -0.5249218993
H        1.6165178120   -1.8388598983   -0.4216520580
H       -0.9745606891   -1.3222240636   -1.1019714764
H       -1.4356233044    1.4992973835    1.6892218875
H       -1.1708528121    1.2942420276   -1.1818826609
C       -1.0262340259   -0.5960862876    1.0226885103
H       -1.2770228793   -1.3482915870    1.7658222050
$end

$rem
method                b3lyp
basis                 6-31g(d)
unrestricted          true
symmetry              off
sym_ignore            true
incdft                false
incfock               0
scf_convergence       8
thresh                14
jobtype               opt
scf_guess             read
scf_algorithm         diis
max_scf_cycles        100
geom_opt_tol_gradient 600
geom_opt_tol_displacement 2400
geom_opt_tol_energy   200
geom_opt_max_cycles   100
$end

--------------------------------------------------------------

    2    -286.8755060422      2.05E-09 Convergence criterion met
 Total energy in the final basis set = -286.87550604

             Standard Nuclear Orientation (Angstroms)
    I     Atom           X                Y                Z
 ----------------------------------------------------------------
    1      C       1.6629375099     0.3779586474    -0.5001537524
    2      C       1.0777111417    -0.8968607755    -0.4473953050
    3      C      -0.4040795225    -0.7270982746    -0.3771646773
    4      C      -1.1105597723     0.7375551373     0.9858434396
    5      C      -0.5204139685     0.8485172612    -0.4203993536
    6      N       0.8249829153     1.4094945397    -0.4886151451
    7      H       2.7360869164     0.5623918229    -0.5255611621
    8      H       1.6154845982    -1.8382102721    -0.4200322845
    9      H      -0.9740398335    -1.3216237740    -1.1032025709
   10      H      -1.4345116269     1.4985579676     1.6893884106
   11      H      -1.1711993910     1.2947841534    -1.1823451340
   12      C      -1.0263319273    -0.5966611864     1.0228156987
   13      H      -1.2760670394    -1.3488052467     1.7668218359
 ----------------------------------------------------------------

   10    -286.8755086345      6.36E-09 Convergence criterion met
 Total energy in the final basis set = -286.87550863
 Final energy is   -286.875508634472
 **  OPTIMIZATION CONVERGED  **

                    Orbital Energies (a.u.)
 --------------------------------------------------------------

 Alpha MOs
 -- Occupied --
-14.328 -10.217 -10.216 -10.207 -10.202 -10.200 -10.195  -0.944
 -0.837  -0.752  -0.665  -0.618  -0.554  -0.523  -0.515  -0.481
 -0.428  -0.403  -0.386  -0.355  -0.341  -0.322  -0.270  -0.253
 -0.203

 Beta MOs
 -- Occupied --
-14.318 -10.219 -10.218 -10.203 -10.199 -10.198 -10.194  -0.932
 -0.831  -0.734  -0.665  -0.610  -0.549  -0.520  -0.512  -0.475
 -0.420  -0.396  -0.381  -0.343  -0.334  -0.301  -0.264  -0.246

          Ground-State Mulliken Net Atomic Charges

     Atom                 Charge (a.u.)    Spin (a.u.)
  --------------------------------------------------------
      1 C                     0.048214      -0.230804
      2 C                    -0.114659       0.693471
      3 C                    -0.193511      -0.053993
      4 C                    -0.075875       0.031796
      5 C                    -0.062128      -0.027660
      6 N                    -0.351429       0.517000
      7 H                     0.140593       0.007437
      8 H                     0.143336      -0.032152
      9 H                     0.148106       0.025251
     10 H                     0.137338       0.003600
     11 H                     0.151583       0.025339
     12 C                    -0.104907       0.033844
     13 H                     0.133339       0.006870
  --------------------------------------------------------
  Sum of atomic charges =    -0.000000

                    Cartesian Multipole Moments
 -----------------------------------------------------------------
    Charge (ESU x 10^10)
                -0.0000
    Dipole Moment (Debye)
         X      -0.5337      Y      -2.0718      Z       0.2429
       Tot       2.1532
    Quadrupole Moments (Debye-Ang)
        XX     -38.2426     XY      -2.9431     YY     -42.2504
        XZ      -0.4275     YZ       1.0323     ZZ     -39.9108

 Total job time:  13.92s(wall), 47.43s(cpu)
        *  Thank you very much for using Q-Chem.  Have a nice day.  *
