 Q-Chem 5.0, Q-Chem, Inc., Pleasanton, CA (2017)
 Q-Chem 5.0.2 for Intel X86 EM64T Linux

User input:
--------------------------------------------------------------
$molecule
0 2
C        1.2763835397   -0.0341859732    0.0319749185
C        0.5636919009   -1.0680140030    0.8142759777
C       -0.8212630411   -1.0079822156    0.8738671216
C       -1.4465363319    0.0137130622    0.1718519945
C       -0.5998576492    0.9726167234   -0.5705815700
N        0.7471698652    1.3939334237    0.0092859506
H        2.3631103388   -0.0435835032    0.0863750253
H        1.1396400289   -1.8211457670    1.3422433810
H       -1.3929959713   -1.7296931111    1.4510534711
H       -2.5234708014    0.1451232383    0.1667822130
H       -1.1076250069    1.8192608899   -1.0282359927
C        0.6790403761    0.5512810618   -1.1959907200
H        1.1227127520    0.8086761738   -2.1529017703
$end

$rem
method                b3lyp
basis                 6-31g(d)
unrestricted          true
symmetry              off
sym_ignore            true
incdft                false
incfock               0
scf_convergence       8
thresh                14
jobtype               opt
scf_guess             read
scf_algorithm         diis
max_scf_cycles        100
geom_opt_tol_gradient 600
geom_opt_tol_displacement 2400
geom_opt_tol_energy   200
geom_opt_max_cycles   100
$end

--------------------------------------------------------------

    2    -286.8567735930      3.89E-10 Convergence criterion met
 Total energy in the final basis set = -286.85677359
   11    -286.8567767057      3.18E-09 Convergence criterion met
 Total energy in the final basis set = -286.85677671

             Standard Nuclear Orientation (Angstroms)
    I     Atom           X                Y                Z
 ----------------------------------------------------------------
    1      C       1.2761875380    -0.0345791982     0.0306515276
    2      C       0.5640916939    -1.0673372000     0.8148049405
    3      C      -0.8212863352    -1.0082726309     0.8733890575
    4      C      -1.4462128103     0.0125111049     0.1706179518
    5      C      -0.5996839628     0.9720850743    -0.5713845213
    6      N       0.7455937047     1.3941763519     0.0095637966
    7      H       2.3629200043    -0.0441431742     0.0858374391
    8      H       1.1396183300    -1.8206337344     1.3424377553
    9      H      -1.3937294336    -1.7287957632     1.4512018224
   10      H      -2.5230053127     0.1456435922     0.1683342726
   11      H      -1.1083934479     1.8193044307    -1.0270041668
   12      C       0.6792603055     0.5509568467    -1.1963286731
   13      H       1.1246397258     0.8090843002    -2.1521212018
 ----------------------------------------------------------------

   10    -286.8567774521      8.41E-09 Convergence criterion met
 Total energy in the final basis set = -286.85677745
 Final energy is   -286.856777452051
 **  OPTIMIZATION CONVERGED  **

                    Orbital Energies (a.u.)
 --------------------------------------------------------------

 Alpha MOs
 -- Occupied --
-14.345 -10.230 -10.230 -10.227 -10.197 -10.197 -10.187  -1.013
 -0.808  -0.751  -0.634  -0.627  -0.606  -0.533  -0.479  -0.459
 -0.455  -0.412  -0.388  -0.357  -0.353  -0.338  -0.286  -0.241
 -0.181

 Beta MOs
 -- Occupied --
-14.342 -10.231 -10.231 -10.226 -10.191 -10.189 -10.189  -1.009
 -0.798  -0.741  -0.626  -0.620  -0.601  -0.531  -0.474  -0.457
 -0.449  -0.408  -0.385  -0.354  -0.340  -0.313  -0.282  -0.237

          Ground-State Mulliken Net Atomic Charges

     Atom                 Charge (a.u.)    Spin (a.u.)
  --------------------------------------------------------
      1 C                    -0.121483      -0.064691
      2 C                    -0.051568       0.626498
      3 C                    -0.179808      -0.258884
      4 C                    -0.051680       0.626617
      5 C                    -0.121489      -0.064780
      6 N                    -0.309591       0.101024
      7 H                     0.151012       0.001194
      8 H                     0.136452      -0.030672
      9 H                     0.133650       0.009282
     10 H                     0.136474      -0.030691
     11 H                     0.151034       0.001205
     12 C                    -0.030024       0.086632
     13 H                     0.157022      -0.002732
  --------------------------------------------------------
  Sum of atomic charges =    -0.000000

                    Cartesian Multipole Moments
 -----------------------------------------------------------------
    Charge (ESU x 10^10)
                 0.0000
    Dipole Moment (Debye)
         X      -0.4061      Y      -1.2444      Z      -0.8178
       Tot       1.5434
    Quadrupole Moments (Debye-Ang)
        XX     -36.4346     XY      -2.8242     YY     -42.8870
        XZ      -0.8147     YZ      -4.0909     ZZ     -39.4887

 Total job time:  75.77s(wall), 87.33s(cpu)
        *  Thank you very much for using Q-Chem.  Have a nice day.  *
