 Q-Chem 5.0, Q-Chem, Inc., Pleasanton, CA (2017)
 Q-Chem 5.0.2 for Intel X86 EM64T Linux

User input:
--------------------------------------------------------------
$molecule
0 2
C        1.2492467599    0.2399271577    0.2518696042
C        0.5665165042   -1.1291107371   -0.2137731352
C       -0.7465313887   -0.8794381671   -0.7924339112
C       -1.0525385066    0.2225248534    0.2198319462
C       -0.4365393380    1.4758324814   -0.3885640269
N        0.8482919169    1.4553704079   -0.4100963746
H        2.2883692382    0.1483321757    0.5478890154
H        1.2045607104   -1.9985066332   -0.3292567308
H       -1.1636075705   -1.0702896872   -1.7778245157
H       -2.0578052420    0.3021627473    0.6377902282
H       -1.0066119584    2.2538801971   -0.8919196790
C        0.1487491307   -0.3520547596    1.0542026758
H        0.1578997443   -0.6686300362    2.0922849041
$end

$rem
method                b3lyp
basis                 6-31+g(d,p)
unrestricted          true
symmetry              off
sym_ignore            true
incdft                false
incfock               0
scf_convergence       6
thresh                14
jobtype               sp
scf_guess             read
scf_algorithm         diis
max_scf_cycles        100
stability_analysis    true
max_cis_cycles        100
cis_n_roots           4
$end

--------------------------------------------------------------

             Standard Nuclear Orientation (Angstroms)
    I     Atom           X                Y                Z
 ----------------------------------------------------------------
    1      C       1.2492467599     0.2399271577     0.2518696042
    2      C       0.5665165042    -1.1291107371    -0.2137731352
    3      C      -0.7465313887    -0.8794381671    -0.7924339112
    4      C      -1.0525385066     0.2225248534     0.2198319462
    5      C      -0.4365393380     1.4758324814    -0.3885640269
    6      N       0.8482919169     1.4553704079    -0.4100963746
    7      H       2.2883692382     0.1483321757     0.5478890154
    8      H       1.2045607104    -1.9985066332    -0.3292567308
    9      H      -1.1636075705    -1.0702896872    -1.7778245157
   10      H      -2.0578052420     0.3021627473     0.6377902282
   11      H      -1.0066119584     2.2538801971    -0.8919196790
   12      C       0.1487491307    -0.3520547596     1.0542026758
   13      H       0.1578997443    -0.6686300362     2.0922849041
 ----------------------------------------------------------------

    2    -286.8593575594      1.06E-09 Convergence criterion met
 Total energy in the final basis set = -286.85935756

         TDDFT/TDA Excitation Energies
 ---------------------------------------------------

 Excited state   1: excitation energy (eV) =    3.5212
 Total energy for state  1:                  -286.72995570 au
    <S**2>     :  1.0007
    Trans. Mom.:  0.0126 X  -0.3717 Y   0.0114 Z
    Strength   :     0.0119468394
    S(  1) --> V(  1) amplitude =  0.8302 alpha
    D( 23) --> S(  1) amplitude = -0.3785 beta
    D( 24) --> S(  1) amplitude =  0.3382 beta

 Excited state   2: excitation energy (eV) =    3.5377
 Total energy for state  2:                  -286.72935093 au
    <S**2>     :  1.1477
    Trans. Mom.:  0.0512 X   0.0742 Y  -0.0741 Z
    Strength   :     0.0011794676
    D( 24) --> V(  1) amplitude =  0.2137 alpha
    S(  1) --> V(  1) amplitude = -0.2848 alpha
    D( 23) --> S(  1) amplitude =  0.2353 beta
    D( 24) --> S(  1) amplitude =  0.8725 beta

 Excited state   3: excitation energy (eV) =    4.0918
 Total energy for state  3:                  -286.70898789 au
    <S**2>     :  0.8719
    Trans. Mom.: -0.1838 X  -0.5120 Y  -0.0985 Z
    Strength   :     0.0306415516
    S(  1) --> V(  1) amplitude =  0.4407 alpha
    D( 23) --> S(  1) amplitude =  0.8530 beta
    D( 23) --> V(  1) amplitude = -0.1520 beta

 Excited state   4: excitation energy (eV) =    4.4336
 Total energy for state  4:                  -286.69642569 au
    <S**2>     :  0.8132
    Trans. Mom.:  0.0346 X   0.1078 Y  -0.1040 Z
    Strength   :     0.0025678793
    S(  1) --> V(  2) amplitude =  0.9838 alpha

 ---------------------------------------------------

                    Orbital Energies (a.u.)
 --------------------------------------------------------------

 Alpha MOs
 -- Occupied --
-14.334 -10.234 -10.230 -10.220 -10.219 -10.218 -10.217  -0.979
 -0.866  -0.759  -0.674  -0.615  -0.580  -0.543  -0.525  -0.475
 -0.448  -0.415  -0.410  -0.366  -0.347  -0.308  -0.285  -0.267
 -0.193

 Beta MOs
 -- Occupied --
-14.333 -10.232 -10.230 -10.220 -10.219 -10.217 -10.205  -0.975
 -0.861  -0.752  -0.662  -0.611  -0.576  -0.536  -0.519  -0.470
 -0.443  -0.412  -0.404  -0.358  -0.342  -0.301  -0.274  -0.261

          Ground-State Mulliken Net Atomic Charges

     Atom                 Charge (a.u.)    Spin (a.u.)
  --------------------------------------------------------
      1 C                    -0.290125       0.110361
      2 C                    -0.051037      -0.155131
      3 C                    -0.155595       0.978969
      4 C                    -0.023973      -0.112954
      5 C                    -0.059123       0.052157
      6 N                    -0.169006       0.038298
      7 H                     0.144335       0.003083
      8 H                     0.139131       0.005448
      9 H                     0.129605      -0.020169
     10 H                     0.134613       0.024768
     11 H                     0.131414       0.000987
     12 C                    -0.062716       0.074208
     13 H                     0.132477      -0.000025
  --------------------------------------------------------
  Sum of atomic charges =    -0.000000

                    Cartesian Multipole Moments
 -----------------------------------------------------------------
    Charge (ESU x 10^10)
                -0.0000
    Dipole Moment (Debye)
         X      -1.2595      Y      -1.5592      Z       0.9676
       Tot       2.2257
    Quadrupole Moments (Debye-Ang)
        XX     -39.8310     XY      -5.7202     YY     -44.6979
        XZ       2.4190     YZ       0.7368     ZZ     -40.5943

 Total job time:  276.23s(wall), 190.84s(cpu)
        *  Thank you very much for using Q-Chem.  Have a nice day.  *
