 Q-Chem 5.0, Q-Chem, Inc., Pleasanton, CA (2017)
 Q-Chem 5.0.2 for Intel X86 EM64T Linux

User input:
--------------------------------------------------------------
$molecule
0 2
C        1.3066171171    0.2495066821    0.3273016824
C        0.5919526013   -1.0059755000   -0.2085288754
C       -0.6525449021   -0.3977588644   -0.9061328284
C       -1.0962696339    0.1955650325    0.4034201747
C       -0.4573765960    1.1126172798   -0.6574421102
N        0.8866973603    1.4200044116   -0.3448937814
H        2.3249194816    0.1888323168    0.6924864910
H        1.0932847117   -1.9418397766   -0.4254054185
H       -1.2297395727   -0.8126884696   -1.7241854420
H       -2.0908682386    0.3380551269    0.8087517799
H       -1.0554099860    1.8480605835   -1.1823199196
C        0.1481348486   -0.4109449737    1.1013324696
H        0.2306028086   -0.7834338490    2.1156157780
$end

$rem
method                b3lyp
basis                 6-31+g(d,p)
unrestricted          true
symmetry              off
sym_ignore            true
incdft                false
incfock               0
scf_convergence       8
thresh                14
jobtype               sp
scf_guess             core
scf_guess_mix         5
scf_algorithm         diis
max_scf_cycles        100
$end

--------------------------------------------------------------

             Standard Nuclear Orientation (Angstroms)
    I     Atom           X                Y                Z
 ----------------------------------------------------------------
    1      C       1.3066171171     0.2495066821     0.3273016824
    2      C       0.5919526013    -1.0059755000    -0.2085288754
    3      C      -0.6525449021    -0.3977588644    -0.9061328284
    4      C      -1.0962696339     0.1955650325     0.4034201747
    5      C      -0.4573765960     1.1126172798    -0.6574421102
    6      N       0.8866973603     1.4200044116    -0.3448937814
    7      H       2.3249194816     0.1888323168     0.6924864910
    8      H       1.0932847117    -1.9418397766    -0.4254054185
    9      H      -1.2297395727    -0.8126884696    -1.7241854420
   10      H      -2.0908682386     0.3380551269     0.8087517799
   11      H      -1.0554099860     1.8480605835    -1.1823199196
   12      C       0.1481348486    -0.4109449737     1.1013324696
   13      H       0.2306028086    -0.7834338490     2.1156157780
 ----------------------------------------------------------------

   22    -286.8454419222      3.20E-09 Convergence criterion met
 Total energy in the final basis set = -286.84544192

                    Orbital Energies (a.u.)
 --------------------------------------------------------------

 Alpha MOs
 -- Occupied --
-14.349 -10.225 -10.225 -10.216 -10.216 -10.216 -10.216  -0.996
 -0.846  -0.802  -0.657  -0.597  -0.582  -0.549  -0.540  -0.462
 -0.435  -0.424  -0.405  -0.393  -0.346  -0.286  -0.283  -0.257
 -0.223

 Beta MOs
 -- Occupied --
-14.333 -10.226 -10.226 -10.215 -10.214 -10.214 -10.214  -0.986
 -0.822  -0.798  -0.652  -0.594  -0.577  -0.544  -0.536  -0.460
 -0.431  -0.400  -0.399  -0.387  -0.331  -0.278  -0.269  -0.253

          Ground-State Mulliken Net Atomic Charges

     Atom                 Charge (a.u.)    Spin (a.u.)
  --------------------------------------------------------
      1 C                    -0.287955      -0.079904
      2 C                    -0.041136       0.087064
      3 C                    -0.040893       0.089178
      4 C                    -0.036661       0.086462
      5 C                    -0.292454      -0.080234
      6 N                    -0.069519       0.815269
      7 H                     0.141424       0.001059
      8 H                     0.131865      -0.002097
      9 H                     0.131729      -0.002165
     10 H                     0.131967      -0.002071
     11 H                     0.141312       0.001075
     12 C                    -0.041125       0.088548
     13 H                     0.131448      -0.002186
  --------------------------------------------------------
  Sum of atomic charges =     0.000000

                    Cartesian Multipole Moments
 -----------------------------------------------------------------
    Charge (ESU x 10^10)
                 0.0000
    Dipole Moment (Debye)
         X      -1.3247      Y      -2.1183      Z       0.5194
       Tot       2.5518
    Quadrupole Moments (Debye-Ang)
        XX     -39.3299     XY      -4.6457     YY     -44.7494
        XZ       2.4570     YZ       0.4083     ZZ     -39.8310

 Total job time:  78.66s(wall), 116.11s(cpu)
        *  Thank you very much for using Q-Chem.  Have a nice day.  *
