 Q-Chem 5.0, Q-Chem, Inc., Pleasanton, CA (2017)
 Q-Chem 5.0.2 for Intel X86 EM64T Linux

User input:
--------------------------------------------------------------
$molecule
0 2
C        1.2472491268    0.2394747160    0.2457807437
C        0.5667876203   -1.1298321881   -0.2132234672
C       -0.7465851239   -0.8839705917   -0.7937796670
C       -1.0529889157    0.2208481240    0.2154257019
C       -0.4345983375    1.4782624648   -0.3837943237
N        0.8482346572    1.4590569046   -0.4110176070
H        2.2863941218    0.1492063717    0.5454966224
H        1.2042933028   -2.0016523227   -0.3222701238
H       -1.1571424385   -1.0756006705   -1.7824910181
H       -2.0600331140    0.2974793718    0.6313898476
H       -1.0059870640    2.2662697034   -0.8718905545
C        0.1477540711   -0.3538931714    1.0501095734
H        0.1566220930   -0.6656487114    2.0902642725
****
C        1.3036771046    0.2521507022    0.3283889540
C        0.5915042904   -1.0050810453   -0.2091711897
C       -0.6520526666   -0.3972929790   -0.9053245182
C       -1.0961669684    0.1941507747    0.4035704523
C       -0.4552002123    1.1111440604   -0.6552892467
N        0.8876513085    1.4247890594   -0.3429184567
H        2.3210492714    0.1923477668    0.6991771963
H        1.0935991318   -1.9407385553   -0.4282503835
H       -1.2293260194   -0.8063382412   -1.7269419756
H       -2.0894486930    0.3392599905    0.8133390363
H       -1.0546123746    1.8409509881   -1.1882437686
C        0.1479545765   -0.4131702463    1.0995957996
H        0.2313712508   -0.7921722750    2.1120681007
$end

$rem
method                b3lyp
basis                 6-31g(d)
unrestricted          true
symmetry              off
sym_ignore            true
incdft                false
incfock               0
scf_convergence       8
thresh                14
jobtype               fsm
scf_guess             core
scf_guess_mix         5
scf_algorithm         diis
max_scf_cycles        100
fsm_nnode             21
fsm_ngrad             6
fsm_mode              2
fsm_opt_mode          2
$end

--------------------------------------------------------------

   20    -286.8383383733      7.75E-09 Convergence criterion met
 Total energy in the final basis set = -286.83833837
   20    -286.8249851925      8.05E-09 Convergence criterion met
 Total energy in the final basis set = -286.82498519
   21    -286.8379774896      9.12E-09 Convergence criterion met
 Total energy in the final basis set = -286.83797749
   21    -286.8358985667      4.57E-09 Convergence criterion met
 Total energy in the final basis set = -286.83589857
   21    -286.8371238920      4.95E-09 Convergence criterion met
 Total energy in the final basis set = -286.83712389
   21    -286.8243650777      4.84E-09 Convergence criterion met
 Total energy in the final basis set = -286.82436508
   21    -286.8237843389      5.95E-09 Convergence criterion met
 Total energy in the final basis set = -286.82378434
   21    -286.8234124681      9.05E-09 Convergence criterion met
 Total energy in the final basis set = -286.81496433
   22    -286.8147407907      7.08E-09 Convergence criterion met
 Total energy in the final basis set = -286.81474079
   22    -286.8149642810      7.86E-09 Convergence criterion met
 Total energy in the final basis set = -286.81496428
   22    -286.8147419761      7.01E-09 Convergence criterion met
 Total energy in the final basis set = -286.81474198
   22    -286.8149598508      7.91E-09 Convergence criterion met
 Total energy in the final basis set = -286.81495985
   22    -286.8147475002      6.91E-09 Convergence criterion met
 Total energy in the final basis set = -286.81474750
   22    -286.8149571591      7.92E-09 Convergence criterion met
 Total energy in the final basis set = -286.81495716
   22    -286.8147510918      6.87E-09 Convergence criterion met
 Total energy in the final basis set = -286.81475109

                    Orbital Energies (a.u.)
 --------------------------------------------------------------

 Alpha MOs
 -- Occupied --
-14.324 -10.220 -10.219 -10.215 -10.210 -10.208 -10.204  -0.979
 -0.842  -0.776  -0.654  -0.594  -0.572  -0.539  -0.531  -0.447
 -0.441  -0.410  -0.403  -0.379  -0.342  -0.280  -0.267  -0.245
 -0.194

 Beta MOs
 -- Occupied --
-14.312 -10.222 -10.215 -10.214 -10.209 -10.206 -10.203  -0.969
 -0.824  -0.771  -0.645  -0.591  -0.567  -0.534  -0.525  -0.445
 -0.435  -0.400  -0.394  -0.370  -0.328  -0.274  -0.253  -0.230

          Ground-State Mulliken Net Atomic Charges

     Atom                 Charge (a.u.)    Spin (a.u.)
  --------------------------------------------------------
      1 C                    -0.047487      -0.043901
      2 C                    -0.128756       0.019678
      3 C                    -0.122490       0.433335
      4 C                    -0.156579       0.031521
      5 C                    -0.012819      -0.146207
      6 N                    -0.304223       0.630221
      7 H                     0.148404       0.000633
      8 H                     0.145170      -0.001600
      9 H                     0.150725      -0.019796
     10 H                     0.145321       0.007907
     11 H                     0.148315       0.003188
     12 C                    -0.107634       0.089966
     13 H                     0.142056      -0.004945
  --------------------------------------------------------
  Sum of atomic charges =    -0.000000

                    Cartesian Multipole Moments
 -----------------------------------------------------------------
    Charge (ESU x 10^10)
                -0.0000
    Dipole Moment (Debye)
         X      -1.4686      Y      -1.9473      Z       0.5835
       Tot       2.5078
    Quadrupole Moments (Debye-Ang)
        XX     -38.3598     XY      -4.3525     YY     -43.0868
        XZ       2.4254     YZ       0.7268     ZZ     -39.2943

             Standard Nuclear Orientation (Angstroms)
    I     Atom           X                Y                Z
 ----------------------------------------------------------------
    1      C       1.2894896980     0.2424476249     0.3120398859
    2      C       0.6004902624    -1.0268513121    -0.2177277144
    3      C      -0.6791641257    -0.5115031047    -0.8718189525
    4      C      -1.0809978684     0.1979155161     0.3666358470
    5      C      -0.4505210357     1.2252964157    -0.5712221666
    6      N       0.8728273475     1.4200164030    -0.3769571657
    7      H       2.3105744271     0.1825501350     0.6730604650
    8      H       1.1318451339    -1.9506289610    -0.4153674465
    9      H      -1.2316425760    -0.8640758377    -1.7336705612
   10      H      -2.0816383921     0.3274994783     0.7701195549
   11      H      -1.0387841572     1.9320868201    -1.1465349762
   12      C       0.1473107141    -0.4026827178     1.0954940539
   13      H       0.2062107832    -0.7759334316     2.1126598221
 ----------------------------------------------------------------

 Total job time:  4407.29s(wall), 5943.53s(cpu)
        *  Thank you very much for using Q-Chem.  Have a nice day.  *
