 Q-Chem 5.0, Q-Chem, Inc., Pleasanton, CA (2017)
 Q-Chem 5.0.2 for Intel X86 EM64T Linux

User input:
--------------------------------------------------------------
$molecule
0 2
C        1.2897813078    0.2365843081    0.3046608651
C        0.6022800866   -1.0313113809   -0.2161487671
C       -0.6814688622   -0.5450019142   -0.8645725162
C       -1.0801803236    0.1987930322    0.3551945278
C       -0.4500219536    1.2564655280   -0.5404939339
N        0.8689881588    1.4208697518   -0.3825182323
H        2.3124881155    0.1797725177    0.6592332121
H        1.1302823028   -1.9576851706   -0.4085986238
H       -1.2210848619   -0.8571364061   -1.7489475600
H       -2.0791973871    0.3240444017    0.7647524653
H       -1.0447351872    1.9343674916   -1.1419582566
C        0.1502496127   -0.3969094926    1.0990749717
H        0.1986192025   -0.7667156385    2.1170324934
$end

$rem
method                b3lyp
basis                 6-31+g(d,p)
unrestricted          true
symmetry              off
sym_ignore            true
incdft                false
incfock               0
scf_convergence       8
thresh                14
jobtype               rpath
scf_guess             core
scf_guess_mix         5
scf_algorithm         diis
max_scf_cycles        100
rpath_direction       1
rpath_tol_displacement 1000
rpath_max_cycles      50
geom_opt_max_cycles   300
geom_opt_hessian      read
$end

--------------------------------------------------------------

   22    -286.8367411340      6.27E-09 Convergence criterion met
 Total energy in the final basis set = -286.83674113
   22    -286.8383683934      6.38E-09 Convergence criterion met
 Total energy in the final basis set = -286.83836839
   22    -286.8383332691      7.69E-09 Convergence criterion met
 Total energy in the final basis set = -286.83833327
   22    -286.8383706818      6.56E-09 Convergence criterion met
 Total energy in the final basis set = -286.83837068
   22    -286.8418979912      2.90E-09 Convergence criterion met
 Total energy in the final basis set = -286.84189799
   22    -286.8418013842      5.86E-09 Convergence criterion met
 Total energy in the final basis set = -286.84180138
   22    -286.8419062192      2.90E-09 Convergence criterion met
 Total energy in the final basis set = -286.84190622
   22    -286.8445535273      4.03E-09 Convergence criterion met
 Total energy in the final basis set = -286.85918808
   21    -286.8593373255      6.26E-09 Convergence criterion met
 Total energy in the final basis set = -286.85933733
   21    -286.8591554389      4.85E-09 Convergence criterion met
 Total energy in the final basis set = -286.85915544
   21    -286.8593546998      4.65E-09 Convergence criterion met
 Total energy in the final basis set = -286.85935470
   22    -286.8540754088      3.02E-09 Convergence criterion met
 Total energy in the final basis set = -286.85407541
   21    -286.8593569849      4.73E-09 Convergence criterion met
 Total energy in the final basis set = -286.85935698
   21    -286.8593566797      4.65E-09 Convergence criterion met
 Total energy in the final basis set = -286.85935668
   21    -286.8593575594      4.69E-09 Convergence criterion met
 Total energy in the final basis set = -286.85935756

                    Orbital Energies (a.u.)
 --------------------------------------------------------------

 Alpha MOs
 -- Occupied --
-14.334 -10.234 -10.230 -10.220 -10.219 -10.218 -10.217  -0.979
 -0.866  -0.759  -0.674  -0.615  -0.580  -0.543  -0.525  -0.475
 -0.448  -0.415  -0.410  -0.366  -0.347  -0.308  -0.285  -0.267
 -0.193

 Beta MOs
 -- Occupied --
-14.333 -10.232 -10.230 -10.220 -10.219 -10.217 -10.205  -0.975
 -0.861  -0.752  -0.662  -0.611  -0.576  -0.536  -0.519  -0.470
 -0.443  -0.412  -0.404  -0.358  -0.342  -0.301  -0.274  -0.261

          Ground-State Mulliken Net Atomic Charges

     Atom                 Charge (a.u.)    Spin (a.u.)
  --------------------------------------------------------
      1 C                    -0.290125       0.110362
      2 C                    -0.051037      -0.155132
      3 C                    -0.155595       0.978969
      4 C                    -0.023973      -0.112954
      5 C                    -0.059123       0.052157
      6 N                    -0.169006       0.038298
      7 H                     0.144335       0.003083
      8 H                     0.139131       0.005448
      9 H                     0.129605      -0.020169
     10 H                     0.134613       0.024768
     11 H                     0.131414       0.000987
     12 C                    -0.062716       0.074207
     13 H                     0.132477      -0.000025
  --------------------------------------------------------
  Sum of atomic charges =    -0.000000

                    Cartesian Multipole Moments
 -----------------------------------------------------------------
    Charge (ESU x 10^10)
                -0.0000
    Dipole Moment (Debye)
         X      -1.2595      Y      -1.5592      Z       0.9676
       Tot       2.2257
    Quadrupole Moments (Debye-Ang)
        XX     -39.8302     XY      -5.7194     YY     -44.6970
        XZ       2.4190     YZ       0.7369     ZZ     -40.5948

             Standard Nuclear Orientation (Angstroms)
    I     Atom           X                Y                Z
 ----------------------------------------------------------------
    1      C       1.2897813078     0.2365843081     0.3046608651
    2      C       0.6022800866    -1.0313113809    -0.2161487671
    3      C      -0.6814688622    -0.5450019142    -0.8645725162
    4      C      -1.0801803236     0.1987930322     0.3551945278
    5      C      -0.4500219536     1.2564655280    -0.5404939339
    6      N       0.8689881588     1.4208697518    -0.3825182323
    7      H       2.3124881155     0.1797725177     0.6592332121
    8      H       1.1302823028    -1.9576851706    -0.4085986238
    9      H      -1.2210848619    -0.8571364061    -1.7489475600
   10      H      -2.0791973871     0.3240444017     0.7647524653
   11      H      -1.0447351872     1.9343674916    -1.1419582566
   12      C       0.1502496127    -0.3969094926     1.0990749717
   13      H       0.1986192025    -0.7667156385     2.1170324934
 ----------------------------------------------------------------

 Total job time:  9667.09s(wall), 18725.80s(cpu)
        *  Thank you very much for using Q-Chem.  Have a nice day.  *
