 Q-Chem 5.0, Q-Chem, Inc., Pleasanton, CA (2017)
 Q-Chem 5.0.2 for Intel X86 EM64T Linux

User input:
--------------------------------------------------------------
$molecule
0 2
C        1.3034546361    0.2523792074    0.3288982450
C        0.5916208169   -1.0050615106   -0.2092733159
C       -0.6521746658   -0.3977619576   -0.9052004810
C       -1.0959615426    0.1946255814    0.4034628598
C       -0.4551047710    1.1111037542   -0.6554759130
N        0.8876507590    1.4247890291   -0.3428919214
H        2.3207843931    0.1923823779    0.6997398880
H        1.0948072486   -1.9399707229   -0.4291213193
H       -1.2305206661   -0.8066343762   -1.7260998326
H       -2.0890181747    0.3400189988    0.8137148189
H       -1.0542314864    1.8406678575   -1.1890933672
C        0.1477966174   -0.4136884767    1.0994451576
H        0.2308968352   -0.7928497623    2.1118951812
$end

$rem
method                b3lyp
basis                 6-31g(d)
unrestricted          true
symmetry              off
sym_ignore            true
incdft                false
incfock               0
scf_convergence       8
thresh                14
jobtype               opt
scf_guess             core
scf_guess_mix         5
scf_algorithm         diis
max_scf_cycles        100
geom_opt_max_cycles   300
$end

--------------------------------------------------------------

   20    -286.8249843107      7.20E-09 Convergence criterion met
 Total energy in the final basis set = -286.82498431

             Standard Nuclear Orientation (Angstroms)
    I     Atom           X                Y                Z
 ----------------------------------------------------------------
    1      C       1.3036771046     0.2521507022     0.3283889540
    2      C       0.5915042904    -1.0050810453    -0.2091711897
    3      C      -0.6520526666    -0.3972929790    -0.9053245182
    4      C      -1.0961669684     0.1941507747     0.4035704523
    5      C      -0.4552002123     1.1111440604    -0.6552892467
    6      N       0.8876513085     1.4247890594    -0.3429184567
    7      H       2.3210492714     0.1923477668     0.6991771963
    8      H       1.0935991318    -1.9407385553    -0.4282503835
    9      H      -1.2293260194    -0.8063382412    -1.7269419756
   10      H      -2.0894486930     0.3392599905     0.8133390363
   11      H      -1.0546123746     1.8409509881    -1.1882437686
   12      C       0.1479545765    -0.4131702463     1.0995957996
   13      H       0.2313712508    -0.7921722750     2.1120681007
 ----------------------------------------------------------------

   14    -286.8249851925      2.69E-09 Convergence criterion met
 Total energy in the final basis set = -286.82498519
 Final energy is   -286.824985192478
 **  OPTIMIZATION CONVERGED  **

                    Orbital Energies (a.u.)
 --------------------------------------------------------------

 Alpha MOs
 -- Occupied --
-14.335 -10.215 -10.215 -10.207 -10.207 -10.207 -10.206  -0.986
 -0.837  -0.793  -0.649  -0.588  -0.574  -0.542  -0.533  -0.455
 -0.427  -0.415  -0.395  -0.384  -0.337  -0.275  -0.274  -0.248
 -0.212

 Beta MOs
 -- Occupied --
-14.319 -10.217 -10.216 -10.205 -10.205 -10.205 -10.205  -0.976
 -0.811  -0.789  -0.644  -0.585  -0.568  -0.537  -0.529  -0.453
 -0.423  -0.392  -0.389  -0.378  -0.322  -0.269  -0.257  -0.244

          Ground-State Mulliken Net Atomic Charges

     Atom                 Charge (a.u.)    Spin (a.u.)
  --------------------------------------------------------
      1 C                    -0.044903      -0.080335
      2 C                    -0.124822       0.089697
      3 C                    -0.124950       0.089628
      4 C                    -0.124786       0.088781
      5 C                    -0.044717      -0.080286
      6 N                    -0.285893       0.811415
      7 H                     0.149321       0.001045
      8 H                     0.144029      -0.002517
      9 H                     0.144057      -0.002516
     10 H                     0.143977      -0.002460
     11 H                     0.149305       0.001045
     12 C                    -0.124547       0.088969
     13 H                     0.143929      -0.002466
  --------------------------------------------------------
  Sum of atomic charges =    -0.000000

                    Cartesian Multipole Moments
 -----------------------------------------------------------------
    Charge (ESU x 10^10)
                -0.0000
    Dipole Moment (Debye)
         X      -1.2043      Y      -1.9307      Z       0.4671
       Tot       2.3230
    Quadrupole Moments (Debye-Ang)
        XX     -38.4278     XY      -4.1516     YY     -43.2978
        XZ       2.2397     YZ       0.3083     ZZ     -38.8911

 Total job time:  99.48s(wall), 108.11s(cpu)
        *  Thank you very much for using Q-Chem.  Have a nice day.  *
