 Q-Chem 5.0, Q-Chem, Inc., Pleasanton, CA (2017)
 Q-Chem 5.0.2 for Intel X86 EM64T Linux

User input:
--------------------------------------------------------------
$molecule
0 2
C        1.2467903328    0.2391493530    0.2452889900
C        0.5671291017   -1.1296078278   -0.2130786642
C       -0.7462328251   -0.8837993413   -0.7938688356
C       -1.0526486561    0.2204303567    0.2141082371
C       -0.4347294886    1.4776613843   -0.3838562609
N        0.8482391741    1.4593432948   -0.4109522628
H        2.2856112669    0.1481923634    0.5460922891
H        1.2042191783   -2.0016887613   -0.3225968500
H       -1.1575096410   -1.0762076433   -1.7821280533
H       -2.0596013823    0.2974853457    0.6304837076
H       -1.0062005099    2.2666915076   -0.8701299983
C        0.1476016803   -0.3534424927    1.0501550238
H        0.1573317683   -0.6642075387    2.0904826776
$end

$rem
method                b3lyp
basis                 6-31g(d)
unrestricted          true
symmetry              off
sym_ignore            true
incdft                false
incfock               0
scf_convergence       8
thresh                14
jobtype               opt
scf_guess             core
scf_guess_mix         5
scf_algorithm         diis
max_scf_cycles        100
geom_opt_max_cycles   300
$end

--------------------------------------------------------------

   20    -286.8383360532      7.58E-09 Convergence criterion met
 Total energy in the final basis set = -286.83833605
   15    -286.8383379605      5.52E-09 Convergence criterion met
 Total energy in the final basis set = -286.83833796

             Standard Nuclear Orientation (Angstroms)
    I     Atom           X                Y                Z
 ----------------------------------------------------------------
    1      C       1.2472491268     0.2394747160     0.2457807437
    2      C       0.5667876203    -1.1298321881    -0.2132234672
    3      C      -0.7465851239    -0.8839705917    -0.7937796670
    4      C      -1.0529889157     0.2208481240     0.2154257019
    5      C      -0.4345983375     1.4782624648    -0.3837943237
    6      N       0.8482346572     1.4590569046    -0.4110176070
    7      H       2.2863941218     0.1492063717     0.5454966224
    8      H       1.2042933028    -2.0016523227    -0.3222701238
    9      H      -1.1571424385    -1.0756006705    -1.7824910181
   10      H      -2.0600331140     0.2974793718     0.6313898476
   11      H      -1.0059870640     2.2662697034    -0.8718905545
   12      C       0.1477540711    -0.3538931714     1.0501095734
   13      H       0.1566220930    -0.6656487114     2.0902642725
 ----------------------------------------------------------------

   15    -286.8383383733      5.62E-09 Convergence criterion met
 Total energy in the final basis set = -286.83833837
 Final energy is   -286.838338373324
 **  OPTIMIZATION CONVERGED  **

                    Orbital Energies (a.u.)
 --------------------------------------------------------------

 Alpha MOs
 -- Occupied --
-14.320 -10.224 -10.220 -10.210 -10.209 -10.208 -10.206  -0.968
 -0.856  -0.749  -0.664  -0.606  -0.571  -0.535  -0.517  -0.467
 -0.439  -0.405  -0.400  -0.356  -0.336  -0.298  -0.274  -0.256
 -0.182

 Beta MOs
 -- Occupied --
-14.319 -10.222 -10.219 -10.211 -10.209 -10.207 -10.193  -0.964
 -0.850  -0.741  -0.652  -0.601  -0.567  -0.528  -0.511  -0.461
 -0.434  -0.402  -0.394  -0.348  -0.332  -0.291  -0.262  -0.251

          Ground-State Mulliken Net Atomic Charges

     Atom                 Charge (a.u.)    Spin (a.u.)
  --------------------------------------------------------
      1 C                    -0.019014       0.097059
      2 C                    -0.163826      -0.095905
      3 C                    -0.066359       0.888416
      4 C                    -0.258035      -0.065675
      5 C                     0.088817       0.047153
      6 N                    -0.342254       0.038976
      7 H                     0.151387       0.002857
      8 H                     0.147261       0.005283
      9 H                     0.136219      -0.019152
     10 H                     0.142807       0.022704
     11 H                     0.143045       0.001368
     12 C                    -0.108177       0.077694
     13 H                     0.148129      -0.000778
  --------------------------------------------------------
  Sum of atomic charges =     0.000000

                    Cartesian Multipole Moments
 -----------------------------------------------------------------
    Charge (ESU x 10^10)
                 0.0000
    Dipole Moment (Debye)
         X      -1.1706      Y      -1.4391      Z       0.8648
       Tot       2.0468
    Quadrupole Moments (Debye-Ang)
        XX     -38.8675     XY      -5.0035     YY     -42.9698
        XZ       2.2378     YZ       0.6293     ZZ     -39.4873

 Total job time:  98.20s(wall), 157.81s(cpu)
        *  Thank you very much for using Q-Chem.  Have a nice day.  *
