 Q-Chem 5.0, Q-Chem, Inc., Pleasanton, CA (2017)
 Q-Chem 5.0.2 for Intel X86 EM64T Linux

User input:
--------------------------------------------------------------
$molecule
0 2
C        1.2894896980    0.2424476249    0.3120398859
C        0.6004902624   -1.0268513121   -0.2177277144
C       -0.6791641257   -0.5115031047   -0.8718189525
C       -1.0809978684    0.1979155161    0.3666358470
C       -0.4505210357    1.2252964157   -0.5712221666
N        0.8728273475    1.4200164030   -0.3769571657
H        2.3105744271    0.1825501350    0.6730604650
H        1.1318451339   -1.9506289610   -0.4153674465
H       -1.2316425760   -0.8640758377   -1.7336705612
H       -2.0816383921    0.3274994783    0.7701195549
H       -1.0387841572    1.9320868201   -1.1465349762
C        0.1473107141   -0.4026827178    1.0954940539
H        0.2062107832   -0.7759334316    2.1126598221
$end

$rem
method                b3lyp
basis                 6-31g(d)
unrestricted          true
symmetry              off
sym_ignore            true
incdft                false
incfock               0
scf_convergence       6
thresh                14
jobtype               sp
scf_guess             read
scf_algorithm         diis
max_scf_cycles        100
stability_analysis    true
max_cis_cycles        100
cis_n_roots           4
$end

--------------------------------------------------------------

             Standard Nuclear Orientation (Angstroms)
    I     Atom           X                Y                Z
 ----------------------------------------------------------------
    1      C       1.2894896980     0.2424476249     0.3120398859
    2      C       0.6004902624    -1.0268513121    -0.2177277144
    3      C      -0.6791641257    -0.5115031047    -0.8718189525
    4      C      -1.0809978684     0.1979155161     0.3666358470
    5      C      -0.4505210357     1.2252964157    -0.5712221666
    6      N       0.8728273475     1.4200164030    -0.3769571657
    7      H       2.3105744271     0.1825501350     0.6730604650
    8      H       1.1318451339    -1.9506289610    -0.4153674465
    9      H      -1.2316425760    -0.8640758377    -1.7336705612
   10      H      -2.0816383921     0.3274994783     0.7701195549
   11      H      -1.0387841572     1.9320868201    -1.1465349762
   12      C       0.1473107141    -0.4026827178     1.0954940539
   13      H       0.2062107832    -0.7759334316     2.1126598221
 ----------------------------------------------------------------

    2    -286.8165982148      2.11E-09 Convergence criterion met
 Total energy in the final basis set = -286.81659821

         TDDFT/TDA Excitation Energies
 ---------------------------------------------------

 Excited state   1: excitation energy (eV) =    2.6943
 Total energy for state  1:                  -286.71758586 au
    <S**2>     :  0.7749
    Trans. Mom.:  0.2756 X   0.1424 Y   0.0671 Z
    Strength   :     0.0066509457
    D( 23) --> S(  1) amplitude = -0.4817 beta
    D( 24) --> S(  1) amplitude =  0.8482 beta

 Excited state   2: excitation energy (eV) =    2.8775
 Total energy for state  2:                  -286.71085134 au
    <S**2>     :  0.7777
    Trans. Mom.:  0.1373 X   0.0972 Y   0.0163 Z
    Strength   :     0.0020133264
    D( 22) --> S(  1) amplitude =  0.1683 beta
    D( 23) --> S(  1) amplitude =  0.8404 beta
    D( 24) --> S(  1) amplitude =  0.4976 beta

 Excited state   3: excitation energy (eV) =    3.8816
 Total energy for state  3:                  -286.67395112 au
    <S**2>     :  0.7855
    Trans. Mom.:  0.1693 X  -0.0940 Y   0.1658 Z
    Strength   :     0.0061813077
    D( 22) --> S(  1) amplitude =  0.9718 beta
    D( 23) --> S(  1) amplitude = -0.2090 beta

 Excited state   4: excitation energy (eV) =    5.2639
 Total energy for state  4:                  -286.62315216 au
    <S**2>     :  0.7993
    Trans. Mom.: -0.1120 X  -0.1590 Y   0.0532 Z
    Strength   :     0.0052444532
    S(  1) --> V(  1) amplitude = -0.3725 alpha
    D( 21) --> S(  1) amplitude =  0.9054 beta

 ---------------------------------------------------

                    Orbital Energies (a.u.)
 --------------------------------------------------------------

 Alpha MOs
 -- Occupied --
-14.325 -10.219 -10.218 -10.215 -10.210 -10.206 -10.204  -0.981
 -0.842  -0.779  -0.653  -0.594  -0.572  -0.541  -0.530  -0.449
 -0.439  -0.411  -0.403  -0.380  -0.341  -0.280  -0.268  -0.246
 -0.195

 Beta MOs
 -- Occupied --
-14.312 -10.221 -10.216 -10.212 -10.209 -10.205 -10.204  -0.971
 -0.823  -0.775  -0.645  -0.591  -0.567  -0.536  -0.525  -0.446
 -0.434  -0.399  -0.394  -0.371  -0.327  -0.274  -0.254  -0.232

          Ground-State Mulliken Net Atomic Charges

     Atom                 Charge (a.u.)    Spin (a.u.)
  --------------------------------------------------------
      1 C                    -0.048392      -0.050397
      2 C                    -0.132548       0.030192
      3 C                    -0.119242       0.381477
      4 C                    -0.157862       0.039572
      5 C                    -0.015442      -0.137364
      6 N                    -0.301401       0.663439
      7 H                     0.148296       0.000693
      8 H                     0.144418      -0.001987
      9 H                     0.150118      -0.017188
     10 H                     0.143982       0.006772
     11 H                     0.149404       0.002898
     12 C                    -0.104401       0.086607
     13 H                     0.143069      -0.004712
  --------------------------------------------------------
  Sum of atomic charges =    -0.000000

                    Cartesian Multipole Moments
 -----------------------------------------------------------------
    Charge (ESU x 10^10)
                -0.0000
    Dipole Moment (Debye)
         X      -1.4412      Y      -1.9339      Z       0.5676
       Tot       2.4778
    Quadrupole Moments (Debye-Ang)
        XX     -38.4308     XY      -4.2455     YY     -43.1532
        XZ       2.4998     YZ       0.6002     ZZ     -39.1115

 Total job time:  120.16s(wall), 79.73s(cpu)
        *  Thank you very much for using Q-Chem.  Have a nice day.  *
