 Q-Chem 5.0, Q-Chem, Inc., Pleasanton, CA (2017)
 Q-Chem 5.0.2 for Intel X86 EM64T Linux

User input:
--------------------------------------------------------------
$molecule
0 2
C        1.2894896980    0.2424476249    0.3120398859
C        0.6004902624   -1.0268513121   -0.2177277144
C       -0.6791641257   -0.5115031047   -0.8718189525
C       -1.0809978684    0.1979155161    0.3666358470
C       -0.4505210357    1.2252964157   -0.5712221666
N        0.8728273475    1.4200164030   -0.3769571657
H        2.3105744271    0.1825501350    0.6730604650
H        1.1318451339   -1.9506289610   -0.4153674465
H       -1.2316425760   -0.8640758377   -1.7336705612
H       -2.0816383921    0.3274994783    0.7701195549
H       -1.0387841572    1.9320868201   -1.1465349762
C        0.1473107141   -0.4026827178    1.0954940539
H        0.2062107832   -0.7759334316    2.1126598221
$end

$rem
method                b3lyp
basis                 6-31g(d)
unrestricted          true
symmetry              off
sym_ignore            true
incdft                false
incfock               0
scf_convergence       8
thresh                14
jobtype               freq
scf_guess             read
scf_algorithm         diis
max_scf_cycles        100
$end

--------------------------------------------------------------

             Standard Nuclear Orientation (Angstroms)
    I     Atom           X                Y                Z
 ----------------------------------------------------------------
    1      C       1.2894896980     0.2424476249     0.3120398859
    2      C       0.6004902624    -1.0268513121    -0.2177277144
    3      C      -0.6791641257    -0.5115031047    -0.8718189525
    4      C      -1.0809978684     0.1979155161     0.3666358470
    5      C      -0.4505210357     1.2252964157    -0.5712221666
    6      N       0.8728273475     1.4200164030    -0.3769571657
    7      H       2.3105744271     0.1825501350     0.6730604650
    8      H       1.1318451339    -1.9506289610    -0.4153674465
    9      H      -1.2316425760    -0.8640758377    -1.7336705612
   10      H      -2.0816383921     0.3274994783     0.7701195549
   11      H      -1.0387841572     1.9320868201    -1.1465349762
   12      C       0.1473107141    -0.4026827178     1.0954940539
   13      H       0.2062107832    -0.7759334316     2.1126598221
 ----------------------------------------------------------------

    2    -286.8165982148      8.57E-10 Convergence criterion met
 Total energy in the final basis set = -286.81659821

                    Orbital Energies (a.u.)
 --------------------------------------------------------------

 Alpha MOs
 -- Occupied --
-14.325 -10.219 -10.218 -10.215 -10.210 -10.206 -10.204  -0.981
 -0.842  -0.779  -0.653  -0.594  -0.572  -0.541  -0.530  -0.449
 -0.439  -0.411  -0.403  -0.380  -0.341  -0.280  -0.268  -0.246
 -0.195

 Beta MOs
 -- Occupied --
-14.312 -10.221 -10.216 -10.212 -10.209 -10.205 -10.204  -0.971
 -0.823  -0.775  -0.645  -0.591  -0.567  -0.536  -0.525  -0.446
 -0.434  -0.399  -0.394  -0.371  -0.327  -0.274  -0.254  -0.232

          Ground-State Mulliken Net Atomic Charges

     Atom                 Charge (a.u.)    Spin (a.u.)
  --------------------------------------------------------
      1 C                    -0.048392      -0.050397
      2 C                    -0.132548       0.030192
      3 C                    -0.119242       0.381477
      4 C                    -0.157862       0.039572
      5 C                    -0.015442      -0.137365
      6 N                    -0.301401       0.663439
      7 H                     0.148296       0.000693
      8 H                     0.144418      -0.001987
      9 H                     0.150118      -0.017188
     10 H                     0.143982       0.006772
     11 H                     0.149404       0.002898
     12 C                    -0.104401       0.086607
     13 H                     0.143069      -0.004712
  --------------------------------------------------------
  Sum of atomic charges =    -0.000000

                    Cartesian Multipole Moments
 -----------------------------------------------------------------
    Charge (ESU x 10^10)
                -0.0000
    Dipole Moment (Debye)
         X      -1.4412      Y      -1.9339      Z       0.5676
       Tot       2.4778
    Quadrupole Moments (Debye-Ang)
        XX     -38.4308     XY      -4.2455     YY     -43.1532
        XZ       2.4998     YZ       0.6002     ZZ     -39.1115

 Frequency:      -553.20                 466.31                 572.43
 Force Cnst:      1.6366                 0.7345                 0.5966
 Red. Mass:       9.0770                 5.7330                 3.0902
 IR Intens:        8.915                  2.939                  1.776
 Frequency:       661.07                 718.92                 745.01
 Force Cnst:      0.3494                 1.6276                 0.5766
 Red. Mass:       1.3571                 5.3448                 1.7631
 IR Intens:        4.253                  1.096                 12.550
 Frequency:       758.43                 787.82                 806.62
 Force Cnst:      1.5210                 1.4715                 0.8911
 Red. Mass:       4.4879                 4.0240                 2.3245
 IR Intens:        9.735                 15.463                 10.404
 Frequency:       845.75                 889.48                 909.78
 Force Cnst:      0.7707                 0.8768                 0.6371
 Red. Mass:       1.8287                 1.8809                 1.3063
 IR Intens:        7.549                 21.585                  6.321
 Frequency:       929.72                 971.08                 974.63
 Force Cnst:      0.9020                 0.9538                 0.8152
 Red. Mass:       1.7711                 1.7166                 1.4566
 IR Intens:        0.045                  1.324                  3.815
 Frequency:      1002.24                1040.70                1050.89
 Force Cnst:      0.9825                 0.9179                 1.6162
 Red. Mass:       1.6601                 1.4384                 2.4840
 IR Intens:        1.820                  2.075                  1.214
 Frequency:      1057.32                1144.18                1211.24
 Force Cnst:      1.2579                 1.7765                 1.1478
 Red. Mass:       1.9098                 2.3032                 1.3278
 IR Intens:        1.816                  0.058                  0.179
 Frequency:      1238.80                1255.11                1284.91
 Force Cnst:      1.8651                 1.9629                 2.5287
 Red. Mass:       2.0628                 2.1148                 2.5996
 IR Intens:        1.430                  5.286                  7.689
 Frequency:      1297.50                1344.27                1376.08
 Force Cnst:      1.8443                 2.4965                 2.1399
 Red. Mass:       1.8594                 2.3448                 1.9180
 IR Intens:        6.812                  6.638                  0.519
 Frequency:      3185.39                3210.20                3219.05
 Force Cnst:      6.5283                 6.6346                 6.6608
 Red. Mass:       1.0920                 1.0927                 1.0910
 IR Intens:       14.620                 15.240                 10.114
 Frequency:      3227.38                3230.11                3249.00
 Force Cnst:      6.7042                 6.7382                 6.8262
 Red. Mass:       1.0924                 1.0961                 1.0976
 IR Intens:       18.222                 11.985                  5.892

 STANDARD THERMODYNAMIC QUANTITIES AT   298.15 K  AND     1.00 ATM

   This Molecule has  1 Imaginary Frequencies
   Zero point vibrational energy:       63.847 kcal/mol

   Atom    1 Element C  Has Mass   12.00000
   Atom    2 Element C  Has Mass   12.00000
   Atom    3 Element C  Has Mass   12.00000
   Atom    4 Element C  Has Mass   12.00000
   Atom    5 Element C  Has Mass   12.00000
   Atom    6 Element N  Has Mass   14.00307
   Atom    7 Element H  Has Mass    1.00783
   Atom    8 Element H  Has Mass    1.00783
   Atom    9 Element H  Has Mass    1.00783
   Atom   10 Element H  Has Mass    1.00783
   Atom   11 Element H  Has Mass    1.00783
   Atom   12 Element C  Has Mass   12.00000
   Atom   13 Element H  Has Mass    1.00783
   Molecular Mass:    92.050050 amu
   Principal axes and moments of inertia in amu*Bohr^2:
                             1           2           3
    Eigenvalues --      386.53278   398.45949   531.49697
          X              -0.18054     0.94285    -0.28008
          Y               0.90830     0.26907     0.32030
          Z              -0.37736     0.19657     0.90496
   Rotational Symmetry Number is   1
   The Molecule is an Asymmetric Top
   Translational Enthalpy:        0.889 kcal/mol
   Rotational Enthalpy:           0.889 kcal/mol
   Vibrational Enthalpy:         64.815 kcal/mol
   gas constant (RT):             0.592 kcal/mol
   Translational Entropy:        39.471  cal/mol.K
   Rotational Entropy:           25.907  cal/mol.K
   Vibrational Entropy:           4.175  cal/mol.K

   Total Enthalpy:               67.185 kcal/mol
   Total Entropy:                69.553  cal/mol.K

 Total job time:  291.09s(wall), 258.64s(cpu)
        *  Thank you very much for using Q-Chem.  Have a nice day.  *
