 Q-Chem 5.0, Q-Chem, Inc., Pleasanton, CA (2017)
 Q-Chem 5.0.2 for Intel X86 EM64T Linux

User input:
--------------------------------------------------------------
$molecule
0 2
C        1.2876038416    0.2386410957    0.3030429905
C        0.6006103315   -1.0315480416   -0.2151223961
C       -0.6818119828   -0.5466875834   -0.8638848106
C       -1.0796018777    0.1983095164    0.3543473636
C       -0.4469097100    1.2579465208   -0.5368276513
N        0.8706245166    1.4235013203   -0.3853395351
H        2.3109143137    0.1803299701    0.6585790020
H        1.1302045148   -1.9580830527   -0.4061364024
H       -1.2212163308   -0.8576167314   -1.7492607362
H       -2.0793991958    0.3228800339    0.7644001837
H       -1.0436345423    1.9337557960   -1.1404132233
C        0.1502455163   -0.3974376720    1.0974321517
H        0.1983708159   -0.7678541439    2.1158937091
$end

$rem
method                b3lyp
basis                 6-31+g(d,p)
unrestricted          true
symmetry              off
sym_ignore            true
incdft                false
incfock               0
scf_convergence       8
thresh                14
jobtype               ts
scf_guess             read
scf_algorithm         diis
max_scf_cycles        100
geom_opt_max_cycles   500
geom_opt_dmax         100
geom_opt_tol_gradient 10
geom_opt_hessian      read
$end

--------------------------------------------------------------

    2    -286.8367145867      6.87E-10 Convergence criterion met
 Total energy in the final basis set = -286.83671459
   12    -286.8367411317      4.98E-09 Convergence criterion met
 Total energy in the final basis set = -286.83674113

             Standard Nuclear Orientation (Angstroms)
    I     Atom           X                Y                Z
 ----------------------------------------------------------------
    1      C       1.2897813078     0.2365843081     0.3046608651
    2      C       0.6022800866    -1.0313113809    -0.2161487671
    3      C      -0.6814688622    -0.5450019142    -0.8645725162
    4      C      -1.0801803236     0.1987930322     0.3551945278
    5      C      -0.4500219536     1.2564655280    -0.5404939339
    6      N       0.8689881588     1.4208697518    -0.3825182323
    7      H       2.3124881155     0.1797725177     0.6592332121
    8      H       1.1302823028    -1.9576851706    -0.4085986238
    9      H      -1.2210848619    -0.8571364061    -1.7489475600
   10      H      -2.0791973871     0.3240444017     0.7647524653
   11      H      -1.0447351872     1.9343674916    -1.1419582566
   12      C       0.1502496127    -0.3969094926     1.0990749717
   13      H       0.1986192025    -0.7667156385     2.1170324934
 ----------------------------------------------------------------

    8    -286.8367411340      3.38E-09 Convergence criterion met
 Total energy in the final basis set = -286.83674113
 Final energy is   -286.836741133994
 **  OPTIMIZATION CONVERGED  **

                    Orbital Energies (a.u.)
 --------------------------------------------------------------

 Alpha MOs
 -- Occupied --
-14.336 -10.230 -10.230 -10.225 -10.220 -10.216 -10.214  -0.990
 -0.853  -0.786  -0.664  -0.603  -0.582  -0.549  -0.537  -0.456
 -0.451  -0.418  -0.414  -0.387  -0.350  -0.293  -0.278  -0.256
 -0.202

 Beta MOs
 -- Occupied --
-14.325 -10.232 -10.226 -10.222 -10.220 -10.215 -10.214  -0.980
 -0.837  -0.781  -0.654  -0.601  -0.577  -0.543  -0.532  -0.453
 -0.445  -0.411  -0.403  -0.378  -0.338  -0.287  -0.265  -0.241

          Ground-State Mulliken Net Atomic Charges

     Atom                 Charge (a.u.)    Spin (a.u.)
  --------------------------------------------------------
      1 C                    -0.276016      -0.019286
      2 C                    -0.023923      -0.031984
      3 C                    -0.139743       0.561130
      4 C                     0.042662      -0.025399
      5 C                    -0.239057      -0.147526
      6 N                    -0.110874       0.576482
      7 H                     0.140788       0.000725
      8 H                     0.134597      -0.000699
      9 H                     0.140743      -0.023171
     10 H                     0.130696       0.012021
     11 H                     0.141073       0.003599
     12 C                    -0.071461       0.098596
     13 H                     0.130513      -0.004489
  --------------------------------------------------------
  Sum of atomic charges =     0.000000

                    Cartesian Multipole Moments
 -----------------------------------------------------------------
    Charge (ESU x 10^10)
                 0.0000
    Dipole Moment (Debye)
         X      -1.6582      Y      -2.1447      Z       0.6747
       Tot       2.7937
    Quadrupole Moments (Debye-Ang)
        XX     -39.3103     XY      -4.9139     YY     -44.8772
        XZ       2.7597     YZ       0.7638     ZZ     -40.1337

 Total job time:  91.84s(wall), 170.80s(cpu)
        *  Thank you very much for using Q-Chem.  Have a nice day.  *
