 Q-Chem 5.0, Q-Chem, Inc., Pleasanton, CA (2017)
 Q-Chem 5.0.2 for Intel X86 EM64T Linux

User input:
--------------------------------------------------------------
$molecule
0 2
C        1.2894896980    0.2424476249    0.3120398859
C        0.6004902624   -1.0268513121   -0.2177277144
C       -0.6791641257   -0.5115031047   -0.8718189525
C       -1.0809978684    0.1979155161    0.3666358470
C       -0.4505210357    1.2252964157   -0.5712221666
N        0.8728273475    1.4200164030   -0.3769571657
H        2.3105744271    0.1825501350    0.6730604650
H        1.1318451339   -1.9506289610   -0.4153674465
H       -1.2316425760   -0.8640758377   -1.7336705612
H       -2.0816383921    0.3274994783    0.7701195549
H       -1.0387841572    1.9320868201   -1.1465349762
C        0.1473107141   -0.4026827178    1.0954940539
H        0.2062107832   -0.7759334316    2.1126598221
$end

$rem
method                b3lyp
basis                 6-31g(d)
unrestricted          true
symmetry              off
sym_ignore            true
incdft                false
incfock               0
scf_convergence       8
thresh                14
jobtype               ts
scf_guess             read
scf_algorithm         diis
max_scf_cycles        100
geom_opt_max_cycles   500
geom_opt_dmax         100
geom_opt_tol_gradient 10
geom_opt_hessian      read
$end

--------------------------------------------------------------

    2    -286.8165982148      1.95E-10 Convergence criterion met
 Total energy in the final basis set = -286.81659821
   13    -286.8161609865      6.45E-09 Convergence criterion met
 Total energy in the final basis set = -286.81616099
   13    -286.8158586581      9.18E-09 Convergence criterion met
 Total energy in the final basis set = -286.81585866
   14    -286.8156983296      3.15E-09 Convergence criterion met
 Total energy in the final basis set = -286.81569833
   13    -286.8156666553      7.06E-09 Convergence criterion met
 Total energy in the final basis set = -286.81566666

             Standard Nuclear Orientation (Angstroms)
    I     Atom           X                Y                Z
 ----------------------------------------------------------------
    1      C       1.2876038416     0.2386410957     0.3030429905
    2      C       0.6006103315    -1.0315480416    -0.2151223961
    3      C      -0.6818119828    -0.5466875834    -0.8638848106
    4      C      -1.0796018777     0.1983095164     0.3543473636
    5      C      -0.4469097100     1.2579465208    -0.5368276513
    6      N       0.8706245166     1.4235013203    -0.3853395351
    7      H       2.3109143137     0.1803299701     0.6585790020
    8      H       1.1302045148    -1.9580830527    -0.4061364024
    9      H      -1.2212163308    -0.8576167314    -1.7492607362
   10      H      -2.0793991958     0.3228800339     0.7644001837
   11      H      -1.0436345423     1.9337557960    -1.1404132233
   12      C       0.1502455163    -0.3974376720     1.0974321517
   13      H       0.1983708159    -0.7678541439     2.1158937091
 ----------------------------------------------------------------

   10    -286.8156667134      4.01E-09 Convergence criterion met
 Total energy in the final basis set = -286.81566671
 Final energy is   -286.815666713399
 **  OPTIMIZATION CONVERGED  **

                    Orbital Energies (a.u.)
 --------------------------------------------------------------

 Alpha MOs
 -- Occupied --
-14.321 -10.219 -10.219 -10.215 -10.211 -10.206 -10.204  -0.979
 -0.843  -0.776  -0.655  -0.594  -0.573  -0.542  -0.530  -0.448
 -0.443  -0.409  -0.404  -0.377  -0.341  -0.283  -0.267  -0.245
 -0.190

 Beta MOs
 -- Occupied --
-14.310 -10.221 -10.216 -10.212 -10.210 -10.205 -10.204  -0.970
 -0.827  -0.771  -0.645  -0.591  -0.568  -0.536  -0.524  -0.445
 -0.437  -0.401  -0.394  -0.368  -0.328  -0.277  -0.253  -0.230

          Ground-State Mulliken Net Atomic Charges

     Atom                 Charge (a.u.)    Spin (a.u.)
  --------------------------------------------------------
      1 C                    -0.046206      -0.030268
      2 C                    -0.137767       0.001212
      3 C                    -0.109133       0.519484
      4 C                    -0.176754       0.014649
      5 C                     0.002308      -0.148844
      6 N                    -0.314065       0.571422
      7 H                     0.147972       0.000540
      8 H                     0.144746      -0.000859
      9 H                     0.152011      -0.024541
     10 H                     0.144635       0.011377
     11 H                     0.148676       0.004078
     12 C                    -0.100046       0.086412
     13 H                     0.143621      -0.004662
  --------------------------------------------------------
  Sum of atomic charges =     0.000000

                    Cartesian Multipole Moments
 -----------------------------------------------------------------
    Charge (ESU x 10^10)
                 0.0000
    Dipole Moment (Debye)
         X      -1.5320      Y      -1.9657      Z       0.5653
       Tot       2.5555
    Quadrupole Moments (Debye-Ang)
        XX     -38.4411     XY      -4.3292     YY     -43.2962
        XZ       2.5868     YZ       0.6471     ZZ     -39.0513

 Total job time:  145.67s(wall), 224.61s(cpu)
        *  Thank you very much for using Q-Chem.  Have a nice day.  *
