 Q-Chem 5.0, Q-Chem, Inc., Pleasanton, CA (2017)
 Q-Chem 5.0.2 for Intel X86 EM64T Linux

User input:
--------------------------------------------------------------
$molecule
0 2
C        1.2876038416    0.2386410957    0.3030429905
C        0.6006103315   -1.0315480416   -0.2151223961
C       -0.6818119828   -0.5466875834   -0.8638848106
C       -1.0796018777    0.1983095164    0.3543473636
C       -0.4469097100    1.2579465208   -0.5368276513
N        0.8706245166    1.4235013203   -0.3853395351
H        2.3109143137    0.1803299701    0.6585790020
H        1.1302045148   -1.9580830527   -0.4061364024
H       -1.2212163308   -0.8576167314   -1.7492607362
H       -2.0793991958    0.3228800339    0.7644001837
H       -1.0436345423    1.9337557960   -1.1404132233
C        0.1502455163   -0.3974376720    1.0974321517
H        0.1983708159   -0.7678541439    2.1158937091
$end

$rem
method                b3lyp
basis                 6-31+g(d,p)
unrestricted          true
symmetry              off
sym_ignore            true
incdft                false
incfock               0
scf_convergence       6
thresh                14
jobtype               sp
scf_guess             read
scf_algorithm         diis
max_scf_cycles        100
stability_analysis    true
max_cis_cycles        100
cis_n_roots           4
$end

--------------------------------------------------------------

             Standard Nuclear Orientation (Angstroms)
    I     Atom           X                Y                Z
 ----------------------------------------------------------------
    1      C       1.2876038416     0.2386410957     0.3030429905
    2      C       0.6006103315    -1.0315480416    -0.2151223961
    3      C      -0.6818119828    -0.5466875834    -0.8638848106
    4      C      -1.0796018777     0.1983095164     0.3543473636
    5      C      -0.4469097100     1.2579465208    -0.5368276513
    6      N       0.8706245166     1.4235013203    -0.3853395351
    7      H       2.3109143137     0.1803299701     0.6585790020
    8      H       1.1302045148    -1.9580830527    -0.4061364024
    9      H      -1.2212163308    -0.8576167314    -1.7492607362
   10      H      -2.0793991958     0.3228800339     0.7644001837
   11      H      -1.0436345423     1.9337557960    -1.1404132233
   12      C       0.1502455163    -0.3974376720     1.0974321517
   13      H       0.1983708159    -0.7678541439     2.1158937091
 ----------------------------------------------------------------

    2    -286.8367145867      3.95E-09 Convergence criterion met
 Total energy in the final basis set = -286.83671459

         TDDFT/TDA Excitation Energies
 ---------------------------------------------------

 Excited state   1: excitation energy (eV) =    2.5974
 Total energy for state  1:                  -286.74126302 au
    <S**2>     :  0.7679
    Trans. Mom.:  0.3359 X   0.1939 Y   0.0589 Z
    Strength   :     0.0097951573
    D( 24) --> S(  1) amplitude =  0.9636 beta

 Excited state   2: excitation energy (eV) =    2.9785
 Total energy for state  2:                  -286.72725732 au
    <S**2>     :  0.7908
    Trans. Mom.:  0.0206 X   0.0579 Y  -0.0189 Z
    Strength   :     0.0003020787
    D( 22) --> S(  1) amplitude =  0.2122 beta
    D( 23) --> S(  1) amplitude =  0.9537 beta
    D( 24) --> S(  1) amplitude =  0.1587 beta

 Excited state   3: excitation energy (eV) =    3.8736
 Total energy for state  3:                  -286.69436109 au
    <S**2>     :  0.7895
    Trans. Mom.:  0.1368 X  -0.1065 Y   0.1753 Z
    Strength   :     0.0057689640
    D( 22) --> S(  1) amplitude =  0.9665 beta
    D( 23) --> S(  1) amplitude = -0.2224 beta

 Excited state   4: excitation energy (eV) =    4.6532
 Total energy for state  4:                  -286.66571222 au
    <S**2>     :  0.8199
    Trans. Mom.:  0.0257 X  -0.1457 Y  -0.0805 Z
    Strength   :     0.0032334364
    S(  1) --> V(  1) amplitude =  0.9806 alpha
    S(  1) --> V(  2) amplitude =  0.1622 alpha

 ---------------------------------------------------

                    Orbital Energies (a.u.)
 --------------------------------------------------------------

 Alpha MOs
 -- Occupied --
-14.336 -10.230 -10.230 -10.225 -10.221 -10.216 -10.214  -0.990
 -0.854  -0.786  -0.664  -0.603  -0.582  -0.550  -0.537  -0.456
 -0.451  -0.418  -0.414  -0.387  -0.350  -0.293  -0.279  -0.256
 -0.202

 Beta MOs
 -- Occupied --
-14.325 -10.232 -10.226 -10.222 -10.220 -10.214 -10.214  -0.981
 -0.838  -0.781  -0.654  -0.601  -0.576  -0.544  -0.531  -0.453
 -0.446  -0.410  -0.403  -0.378  -0.338  -0.287  -0.266  -0.241

          Ground-State Mulliken Net Atomic Charges

     Atom                 Charge (a.u.)    Spin (a.u.)
  --------------------------------------------------------
      1 C                    -0.277215      -0.017432
      2 C                    -0.023252      -0.034321
      3 C                    -0.141112       0.573403
      4 C                     0.042333      -0.027847
      5 C                    -0.236333      -0.147013
      6 N                    -0.112123       0.567272
      7 H                     0.140492       0.000703
      8 H                     0.134713      -0.000633
      9 H                     0.140920      -0.023696
     10 H                     0.130893       0.012357
     11 H                     0.140638       0.003632
     12 C                    -0.070553       0.098004
     13 H                     0.130602      -0.004429
  --------------------------------------------------------
  Sum of atomic charges =     0.000000

                    Cartesian Multipole Moments
 -----------------------------------------------------------------
    Charge (ESU x 10^10)
                 0.0000
    Dipole Moment (Debye)
         X      -1.6731      Y      -2.1545      Z       0.6802
       Tot       2.8113
    Quadrupole Moments (Debye-Ang)
        XX     -39.3357     XY      -4.8936     YY     -44.8817
        XZ       2.7552     YZ       0.7734     ZZ     -40.1420

 Total job time:  263.21s(wall), 183.80s(cpu)
        *  Thank you very much for using Q-Chem.  Have a nice day.  *
