 Q-Chem 5.0, Q-Chem, Inc., Pleasanton, CA (2017)
 Q-Chem 5.0.2 for Intel X86 EM64T Linux

User input:
--------------------------------------------------------------
$molecule
0 2
C        1.2876038416    0.2386410957    0.3030429905
C        0.6006103315   -1.0315480416   -0.2151223961
C       -0.6818119828   -0.5466875834   -0.8638848106
C       -1.0796018777    0.1983095164    0.3543473636
C       -0.4469097100    1.2579465208   -0.5368276513
N        0.8706245166    1.4235013203   -0.3853395351
H        2.3109143137    0.1803299701    0.6585790020
H        1.1302045148   -1.9580830527   -0.4061364024
H       -1.2212163308   -0.8576167314   -1.7492607362
H       -2.0793991958    0.3228800339    0.7644001837
H       -1.0436345423    1.9337557960   -1.1404132233
C        0.1502455163   -0.3974376720    1.0974321517
H        0.1983708159   -0.7678541439    2.1158937091
$end

$rem
method                b3lyp
basis                 6-31+g(d,p)
unrestricted          true
symmetry              off
sym_ignore            true
incdft                false
incfock               0
scf_convergence       8
thresh                14
jobtype               freq
scf_guess             read
scf_algorithm         diis
max_scf_cycles        100
$end

--------------------------------------------------------------

             Standard Nuclear Orientation (Angstroms)
    I     Atom           X                Y                Z
 ----------------------------------------------------------------
    1      C       1.2876038416     0.2386410957     0.3030429905
    2      C       0.6006103315    -1.0315480416    -0.2151223961
    3      C      -0.6818119828    -0.5466875834    -0.8638848106
    4      C      -1.0796018777     0.1983095164     0.3543473636
    5      C      -0.4469097100     1.2579465208    -0.5368276513
    6      N       0.8706245166     1.4235013203    -0.3853395351
    7      H       2.3109143137     0.1803299701     0.6585790020
    8      H       1.1302045148    -1.9580830527    -0.4061364024
    9      H      -1.2212163308    -0.8576167314    -1.7492607362
   10      H      -2.0793991958     0.3228800339     0.7644001837
   11      H      -1.0436345423     1.9337557960    -1.1404132233
   12      C       0.1502455163    -0.3974376720     1.0974321517
   13      H       0.1983708159    -0.7678541439     2.1158937091
 ----------------------------------------------------------------

    2    -286.8367145867      2.35E-09 Convergence criterion met
 Total energy in the final basis set = -286.83671459

                    Orbital Energies (a.u.)
 --------------------------------------------------------------

 Alpha MOs
 -- Occupied --
-14.336 -10.230 -10.230 -10.225 -10.221 -10.216 -10.214  -0.990
 -0.854  -0.786  -0.664  -0.603  -0.582  -0.550  -0.537  -0.456
 -0.451  -0.418  -0.414  -0.387  -0.350  -0.293  -0.279  -0.256
 -0.202

 Beta MOs
 -- Occupied --
-14.325 -10.232 -10.226 -10.222 -10.220 -10.214 -10.214  -0.981
 -0.838  -0.781  -0.654  -0.601  -0.576  -0.544  -0.531  -0.453
 -0.446  -0.410  -0.403  -0.378  -0.338  -0.287  -0.266  -0.241

          Ground-State Mulliken Net Atomic Charges

     Atom                 Charge (a.u.)    Spin (a.u.)
  --------------------------------------------------------
      1 C                    -0.277215      -0.017432
      2 C                    -0.023252      -0.034322
      3 C                    -0.141112       0.573404
      4 C                     0.042333      -0.027847
      5 C                    -0.236333      -0.147013
      6 N                    -0.112123       0.567272
      7 H                     0.140492       0.000703
      8 H                     0.134713      -0.000633
      9 H                     0.140920      -0.023696
     10 H                     0.130893       0.012357
     11 H                     0.140638       0.003632
     12 C                    -0.070553       0.098004
     13 H                     0.130602      -0.004429
  --------------------------------------------------------
  Sum of atomic charges =    -0.000000

                    Cartesian Multipole Moments
 -----------------------------------------------------------------
    Charge (ESU x 10^10)
                -0.0000
    Dipole Moment (Debye)
         X      -1.6731      Y      -2.1545      Z       0.6802
       Tot       2.8113
    Quadrupole Moments (Debye-Ang)
        XX     -39.3357     XY      -4.8936     YY     -44.8817
        XZ       2.7552     YZ       0.7734     ZZ     -40.1420

 Frequency:      -622.51                 469.76                 563.74
 Force Cnst:      2.0394                 0.4906                 0.5643
 Red. Mass:       8.9322                 3.7731                 3.0139
 IR Intens:        5.524                  3.867                  3.610
 Frequency:       607.76                 707.46                 734.65
 Force Cnst:      0.2895                 2.2091                 0.6104
 Red. Mass:       1.3304                 7.4915                 1.9197
 IR Intens:       15.428                  0.915                 11.444
 Frequency:       761.88                 789.49                 802.51
 Force Cnst:      1.6853                 1.1932                 0.9901
 Red. Mass:       4.9278                 3.2491                 2.6094
 IR Intens:       10.503                 18.480                  6.953
 Frequency:       845.62                 881.77                 905.80
 Force Cnst:      0.8038                 0.6772                 0.7753
 Red. Mass:       1.9078                 1.4783                 1.6038
 IR Intens:        6.401                 26.126                 18.127
 Frequency:       922.95                 969.92                 974.43
 Force Cnst:      0.8206                 0.9806                 0.8397
 Red. Mass:       1.6351                 1.7692                 1.5010
 IR Intens:        0.338                  2.238                  3.361
 Frequency:      1001.80                1046.32                1048.89
 Force Cnst:      1.0001                 0.8949                 1.9194
 Red. Mass:       1.6913                 1.3875                 2.9611
 IR Intens:        1.740                  2.349                  2.196
 Frequency:      1065.17                1139.25                1208.43
 Force Cnst:      1.1515                 1.7463                 1.1509
 Red. Mass:       1.7225                 2.2837                 1.3377
 IR Intens:        6.146                  0.318                  0.315
 Frequency:      1235.65                1246.61                1287.41
 Force Cnst:      2.7150                 1.2407                 2.0075
 Red. Mass:       3.0181                 1.3551                 2.0558
 IR Intens:        7.473                  1.924                 13.691
 Frequency:      1299.84                1338.95                1389.22
 Force Cnst:      2.3181                 2.4832                 2.7282
 Red. Mass:       2.3286                 2.3510                 2.3993
 IR Intens:        3.084                  6.222                  0.537
 Frequency:      3161.24                3200.17                3204.24
 Force Cnst:      6.4319                 6.5878                 6.5984
 Red. Mass:       1.0924                 1.0918                 1.0908
 IR Intens:       14.147                 11.631                  7.705
 Frequency:      3214.00                3216.36                3244.07
 Force Cnst:      6.6494                 6.6876                 6.8011
 Red. Mass:       1.0925                 1.0972                 1.0968
 IR Intens:       19.808                  4.640                  3.906

 STANDARD THERMODYNAMIC QUANTITIES AT   298.15 K  AND     1.00 ATM

   This Molecule has  1 Imaginary Frequencies
   Zero point vibrational energy:       63.595 kcal/mol

   Atom    1 Element C  Has Mass   12.00000
   Atom    2 Element C  Has Mass   12.00000
   Atom    3 Element C  Has Mass   12.00000
   Atom    4 Element C  Has Mass   12.00000
   Atom    5 Element C  Has Mass   12.00000
   Atom    6 Element N  Has Mass   14.00307
   Atom    7 Element H  Has Mass    1.00783
   Atom    8 Element H  Has Mass    1.00783
   Atom    9 Element H  Has Mass    1.00783
   Atom   10 Element H  Has Mass    1.00783
   Atom   11 Element H  Has Mass    1.00783
   Atom   12 Element C  Has Mass   12.00000
   Atom   13 Element H  Has Mass    1.00783
   Molecular Mass:    92.050050 amu
   Principal axes and moments of inertia in amu*Bohr^2:
                             1           2           3
    Eigenvalues --      385.72220   402.06834   534.52889
          X              -0.04773     0.96042    -0.27445
          Y               0.94464     0.13270     0.30008
          Z              -0.32462     0.24493     0.91358
   Rotational Symmetry Number is   1
   The Molecule is an Asymmetric Top
   Translational Enthalpy:        0.889 kcal/mol
   Rotational Enthalpy:           0.889 kcal/mol
   Vibrational Enthalpy:         64.589 kcal/mol
   gas constant (RT):             0.592 kcal/mol
   Translational Entropy:        39.471  cal/mol.K
   Rotational Entropy:           25.919  cal/mol.K
   Vibrational Entropy:           4.294  cal/mol.K

   Total Enthalpy:               66.959 kcal/mol
   Total Entropy:                69.685  cal/mol.K

 Total job time:  628.89s(wall), 561.53s(cpu)
        *  Thank you very much for using Q-Chem.  Have a nice day.  *
