 Q-Chem 5.0, Q-Chem, Inc., Pleasanton, CA (2017)
 Q-Chem 5.0.2 for Intel X86 EM64T Linux

User input:
--------------------------------------------------------------
$molecule
0 2
C        1.2876038416    0.2386410957    0.3030429905
C        0.6006103315   -1.0315480416   -0.2151223961
C       -0.6818119828   -0.5466875834   -0.8638848106
C       -1.0796018777    0.1983095164    0.3543473636
C       -0.4469097100    1.2579465208   -0.5368276513
N        0.8706245166    1.4235013203   -0.3853395351
H        2.3109143137    0.1803299701    0.6585790020
H        1.1302045148   -1.9580830527   -0.4061364024
H       -1.2212163308   -0.8576167314   -1.7492607362
H       -2.0793991958    0.3228800339    0.7644001837
H       -1.0436345423    1.9337557960   -1.1404132233
C        0.1502455163   -0.3974376720    1.0974321517
H        0.1983708159   -0.7678541439    2.1158937091
$end

$rem
method                b3lyp
basis                 6-31g(d)
unrestricted          true
symmetry              off
sym_ignore            true
incdft                false
incfock               0
scf_convergence       6
thresh                14
jobtype               sp
scf_guess             read
scf_algorithm         diis
max_scf_cycles        100
stability_analysis    true
max_cis_cycles        100
cis_n_roots           4
$end

--------------------------------------------------------------

             Standard Nuclear Orientation (Angstroms)
    I     Atom           X                Y                Z
 ----------------------------------------------------------------
    1      C       1.2876038416     0.2386410957     0.3030429905
    2      C       0.6006103315    -1.0315480416    -0.2151223961
    3      C      -0.6818119828    -0.5466875834    -0.8638848106
    4      C      -1.0796018777     0.1983095164     0.3543473636
    5      C      -0.4469097100     1.2579465208    -0.5368276513
    6      N       0.8706245166     1.4235013203    -0.3853395351
    7      H       2.3109143137     0.1803299701     0.6585790020
    8      H       1.1302045148    -1.9580830527    -0.4061364024
    9      H      -1.2212163308    -0.8576167314    -1.7492607362
   10      H      -2.0793991958     0.3228800339     0.7644001837
   11      H      -1.0436345423     1.9337557960    -1.1404132233
   12      C       0.1502455163    -0.3974376720     1.0974321517
   13      H       0.1983708159    -0.7678541439     2.1158937091
 ----------------------------------------------------------------

    2    -286.8156667134      2.62E-10 Convergence criterion met
 Total energy in the final basis set = -286.81566671

         TDDFT/TDA Excitation Energies
 ---------------------------------------------------

 Excited state   1: excitation energy (eV) =    2.6668
 Total energy for state  1:                  -286.71766191 au
    <S**2>     :  0.7683
    Trans. Mom.:  0.3093 X   0.1782 Y   0.0571 Z
    Strength   :     0.0085377067
    S(  1) --> V(  1) amplitude =  0.1703 alpha
    D( 23) --> S(  1) amplitude = -0.2325 beta
    D( 24) --> S(  1) amplitude =  0.9449 beta

 Excited state   2: excitation energy (eV) =    2.9899
 Total energy for state  2:                  -286.70578946 au
    <S**2>     :  0.7911
    Trans. Mom.:  0.0683 X   0.0716 Y  -0.0251 Z
    Strength   :     0.0007630295
    D( 22) --> S(  1) amplitude = -0.1760 beta
    D( 23) --> S(  1) amplitude =  0.9438 beta
    D( 24) --> S(  1) amplitude =  0.2442 beta

 Excited state   3: excitation energy (eV) =    3.9921
 Total energy for state  3:                  -286.66896139 au
    <S**2>     :  0.7888
    Trans. Mom.: -0.1343 X   0.1069 Y  -0.1700 Z
    Strength   :     0.0057069219
    D( 22) --> S(  1) amplitude =  0.9738 beta
    D( 23) --> S(  1) amplitude =  0.1915 beta

 Excited state   4: excitation energy (eV) =    5.1728
 Total energy for state  4:                  -286.62556907 au
    <S**2>     :  0.7918
    Trans. Mom.:  0.0123 X  -0.0211 Y  -0.0605 Z
    Strength   :     0.0005400531
    S(  1) --> V(  1) amplitude =  0.5790 alpha
    D( 21) --> S(  1) amplitude =  0.7858 beta

 ---------------------------------------------------

                    Orbital Energies (a.u.)
 --------------------------------------------------------------

 Alpha MOs
 -- Occupied --
-14.321 -10.219 -10.219 -10.215 -10.211 -10.206 -10.204  -0.979
 -0.843  -0.776  -0.655  -0.594  -0.573  -0.542  -0.530  -0.448
 -0.443  -0.409  -0.404  -0.377  -0.341  -0.283  -0.267  -0.245
 -0.190

 Beta MOs
 -- Occupied --
-14.310 -10.221 -10.216 -10.212 -10.210 -10.205 -10.204  -0.970
 -0.827  -0.771  -0.645  -0.591  -0.568  -0.536  -0.524  -0.445
 -0.437  -0.401  -0.394  -0.368  -0.328  -0.277  -0.253  -0.230

          Ground-State Mulliken Net Atomic Charges

     Atom                 Charge (a.u.)    Spin (a.u.)
  --------------------------------------------------------
      1 C                    -0.046206      -0.030268
      2 C                    -0.137767       0.001212
      3 C                    -0.109133       0.519484
      4 C                    -0.176754       0.014649
      5 C                     0.002308      -0.148844
      6 N                    -0.314065       0.571422
      7 H                     0.147972       0.000540
      8 H                     0.144746      -0.000859
      9 H                     0.152011      -0.024541
     10 H                     0.144635       0.011377
     11 H                     0.148676       0.004078
     12 C                    -0.100046       0.086412
     13 H                     0.143621      -0.004662
  --------------------------------------------------------
  Sum of atomic charges =     0.000000

                    Cartesian Multipole Moments
 -----------------------------------------------------------------
    Charge (ESU x 10^10)
                -0.0000
    Dipole Moment (Debye)
         X      -1.5320      Y      -1.9657      Z       0.5653
       Tot       2.5555
    Quadrupole Moments (Debye-Ang)
        XX     -38.4411     XY      -4.3292     YY     -43.2962
        XZ       2.5868     YZ       0.6471     ZZ     -39.0513

 Total job time:  119.53s(wall), 81.05s(cpu)
        *  Thank you very much for using Q-Chem.  Have a nice day.  *
