 Q-Chem 5.0, Q-Chem, Inc., Pleasanton, CA (2017)
 Q-Chem 5.0.2 for Intel X86 EM64T Linux

User input:
--------------------------------------------------------------
$molecule
0 2
C        1.2897813078    0.2365843081    0.3046608651
C        0.6022800866   -1.0313113809   -0.2161487671
C       -0.6814688622   -0.5450019142   -0.8645725162
C       -1.0801803236    0.1987930322    0.3551945278
C       -0.4500219536    1.2564655280   -0.5404939339
N        0.8689881588    1.4208697518   -0.3825182323
H        2.3124881155    0.1797725177    0.6592332121
H        1.1302823028   -1.9576851706   -0.4085986238
H       -1.2210848619   -0.8571364061   -1.7489475600
H       -2.0791973871    0.3240444017    0.7647524653
H       -1.0447351872    1.9343674916   -1.1419582566
C        0.1502496127   -0.3969094926    1.0990749717
H        0.1986192025   -0.7667156385    2.1170324934
$end

$rem
method                b3lyp
basis                 6-31+g(d,p)
unrestricted          true
symmetry              off
sym_ignore            true
incdft                false
incfock               0
scf_convergence       8
thresh                14
jobtype               freq
scf_guess             read
scf_algorithm         diis
max_scf_cycles        100
$end

--------------------------------------------------------------

             Standard Nuclear Orientation (Angstroms)
    I     Atom           X                Y                Z
 ----------------------------------------------------------------
    1      C       1.2897813078     0.2365843081     0.3046608651
    2      C       0.6022800866    -1.0313113809    -0.2161487671
    3      C      -0.6814688622    -0.5450019142    -0.8645725162
    4      C      -1.0801803236     0.1987930322     0.3551945278
    5      C      -0.4500219536     1.2564655280    -0.5404939339
    6      N       0.8689881588     1.4208697518    -0.3825182323
    7      H       2.3124881155     0.1797725177     0.6592332121
    8      H       1.1302823028    -1.9576851706    -0.4085986238
    9      H      -1.2210848619    -0.8571364061    -1.7489475600
   10      H      -2.0791973871     0.3240444017     0.7647524653
   11      H      -1.0447351872     1.9343674916    -1.1419582566
   12      C       0.1502496127    -0.3969094926     1.0990749717
   13      H       0.1986192025    -0.7667156385     2.1170324934
 ----------------------------------------------------------------

    2    -286.8367411339      3.95E-10 Convergence criterion met
 Total energy in the final basis set = -286.83674113

                    Orbital Energies (a.u.)
 --------------------------------------------------------------

 Alpha MOs
 -- Occupied --
-14.336 -10.230 -10.230 -10.225 -10.220 -10.216 -10.214  -0.990
 -0.853  -0.786  -0.664  -0.603  -0.582  -0.549  -0.537  -0.456
 -0.451  -0.418  -0.414  -0.387  -0.350  -0.293  -0.278  -0.256
 -0.202

 Beta MOs
 -- Occupied --
-14.325 -10.232 -10.226 -10.222 -10.220 -10.215 -10.214  -0.980
 -0.837  -0.781  -0.654  -0.601  -0.577  -0.543  -0.532  -0.453
 -0.445  -0.411  -0.403  -0.378  -0.338  -0.287  -0.265  -0.241

          Ground-State Mulliken Net Atomic Charges

     Atom                 Charge (a.u.)    Spin (a.u.)
  --------------------------------------------------------
      1 C                    -0.276016      -0.019286
      2 C                    -0.023923      -0.031984
      3 C                    -0.139743       0.561129
      4 C                     0.042662      -0.025399
      5 C                    -0.239056      -0.147526
      6 N                    -0.110874       0.576482
      7 H                     0.140788       0.000726
      8 H                     0.134597      -0.000699
      9 H                     0.140743      -0.023171
     10 H                     0.130696       0.012021
     11 H                     0.141073       0.003599
     12 C                    -0.071461       0.098596
     13 H                     0.130513      -0.004489
  --------------------------------------------------------
  Sum of atomic charges =     0.000000

                    Cartesian Multipole Moments
 -----------------------------------------------------------------
    Charge (ESU x 10^10)
                 0.0000
    Dipole Moment (Debye)
         X      -1.6582      Y      -2.1447      Z       0.6747
       Tot       2.7937
    Quadrupole Moments (Debye-Ang)
        XX     -39.3103     XY      -4.9139     YY     -44.8772
        XZ       2.7597     YZ       0.7638     ZZ     -40.1337

 Frequency:      -620.85                 469.38                 563.74
 Force Cnst:      2.0359                 0.5031                 0.5592
 Red. Mass:       8.9648                 3.8757                 2.9863
 IR Intens:        5.726                  3.797                  3.503
 Frequency:       609.16                 707.36                 730.68
 Force Cnst:      0.2894                 2.1996                 0.5969
 Red. Mass:       1.3235                 7.4613                 1.8976
 IR Intens:       15.153                  0.863                 11.741
 Frequency:       761.35                 788.60                 801.09
 Force Cnst:      1.6894                 1.1262                 1.0158
 Red. Mass:       4.9465                 3.0737                 2.6867
 IR Intens:       10.308                 19.256                  6.617
 Frequency:       843.19                 877.94                 902.28
 Force Cnst:      0.7751                 0.6953                 0.7548
 Red. Mass:       1.8503                 1.5310                 1.5735
 IR Intens:        7.124                 26.447                 17.493
 Frequency:       921.27                 968.57                 972.44
 Force Cnst:      0.8196                 0.9965                 0.8357
 Red. Mass:       1.6391                 1.8028                 1.4999
 IR Intens:        0.365                  2.184                  3.274
 Frequency:       999.38                1042.46                1045.78
 Force Cnst:      0.9950                 0.8795                 1.9829
 Red. Mass:       1.6909                 1.3736                 3.0773
 IR Intens:        1.723                  2.414                  2.228
 Frequency:      1061.06                1135.49                1206.38
 Force Cnst:      1.1416                 1.7325                 1.1461
 Red. Mass:       1.7211                 2.2807                 1.3365
 IR Intens:        5.830                  0.247                  0.305
 Frequency:      1234.13                1242.34                1284.40
 Force Cnst:      2.7239                 1.2322                 2.0512
 Red. Mass:       3.0354                 1.3550                 2.1104
 IR Intens:        7.360                  1.995                 13.551
 Frequency:      1296.32                1336.16                1383.01
 Force Cnst:      2.2840                 2.4759                 2.6461
 Red. Mass:       2.3068                 2.3538                 2.3481
 IR Intens:        2.987                  6.355                  0.447
 Frequency:      3169.04                3207.00                3212.39
 Force Cnst:      6.4633                 6.6158                 6.6333
 Red. Mass:       1.0923                 1.0918                 1.0910
 IR Intens:       14.081                 11.850                  5.674
 Frequency:      3222.29                3224.88                3247.58
 Force Cnst:      6.6951                 6.7089                 6.8167
 Red. Mass:       1.0944                 1.0949                 1.0970
 IR Intens:       24.091                  0.570                  3.814

 STANDARD THERMODYNAMIC QUANTITIES AT   298.15 K  AND     1.00 ATM

   This Molecule has  1 Imaginary Frequencies
   Zero point vibrational energy:       63.569 kcal/mol

   Atom    1 Element C  Has Mass   12.00000
   Atom    2 Element C  Has Mass   12.00000
   Atom    3 Element C  Has Mass   12.00000
   Atom    4 Element C  Has Mass   12.00000
   Atom    5 Element C  Has Mass   12.00000
   Atom    6 Element N  Has Mass   14.00307
   Atom    7 Element H  Has Mass    1.00783
   Atom    8 Element H  Has Mass    1.00783
   Atom    9 Element H  Has Mass    1.00783
   Atom   10 Element H  Has Mass    1.00783
   Atom   11 Element H  Has Mass    1.00783
   Atom   12 Element C  Has Mass   12.00000
   Atom   13 Element H  Has Mass    1.00783
   Molecular Mass:    92.050050 amu
   Principal axes and moments of inertia in amu*Bohr^2:
                             1           2           3
    Eigenvalues --      386.32994   401.87143   534.39226
          X              -0.09547     0.95664    -0.27518
          Y               0.93672     0.17987     0.30033
          Z              -0.33680     0.22910     0.91328
   Rotational Symmetry Number is   1
   The Molecule is an Asymmetric Top
   Translational Enthalpy:        0.889 kcal/mol
   Rotational Enthalpy:           0.889 kcal/mol
   Vibrational Enthalpy:         64.568 kcal/mol
   gas constant (RT):             0.592 kcal/mol
   Translational Entropy:        39.471  cal/mol.K
   Rotational Entropy:           25.920  cal/mol.K
   Vibrational Entropy:           4.316  cal/mol.K

   Total Enthalpy:               66.938 kcal/mol
   Total Entropy:                69.707  cal/mol.K

 Total job time:  625.32s(wall), 560.38s(cpu)
        *  Thank you very much for using Q-Chem.  Have a nice day.  *
