 Q-Chem 5.0, Q-Chem, Inc., Pleasanton, CA (2017)
 Q-Chem 5.0.2 for Intel X86 EM64T Linux

User input:
--------------------------------------------------------------
$molecule
0 2
C        1.5112975328    0.4410895933   -0.1334719881
C        0.6762476027   -0.8532161416   -0.0651110651
C       -0.2808059319   -0.4771236761   -1.1995647806
C       -1.0848945239    0.4079405316    0.7580546539
C       -0.5929600890    0.8947523342   -0.6140979223
N        0.8085407511    1.4610016109   -0.4399402184
H        2.5777702011    0.5066567657    0.0756198237
H        1.2121963132   -1.8020485502   -0.0914165359
H       -1.0447083667   -1.1594560826   -1.5687065793
H       -1.8794812201    0.8695979113    1.3339512666
H       -1.2396670597    1.5838911086   -1.1550453864
C       -0.3197423502   -0.6434965978    1.0937289271
H       -0.3437928594   -1.2295888074    2.0059998046
$end

$rem
method                b3lyp
basis                 6-31g(d)
unrestricted          true
symmetry              off
sym_ignore            true
incdft                false
incfock               0
scf_convergence       8
thresh                14
jobtype               opt
scf_guess             read
scf_algorithm         diis
max_scf_cycles        100
geom_opt_tol_gradient 600
geom_opt_tol_displacement 2400
geom_opt_tol_energy   200
geom_opt_max_cycles   100
$end

--------------------------------------------------------------

    2    -286.8516502831      5.78E-10 Convergence criterion met
 Total energy in the final basis set = -286.85165028

             Standard Nuclear Orientation (Angstroms)
    I     Atom           X                Y                Z
 ----------------------------------------------------------------
    1      C       1.5124236583     0.4405902172    -0.1352681912
    2      C       0.6769230512    -0.8534020182    -0.0643630740
    3      C      -0.2817786667    -0.4771365987    -1.1984266003
    4      C      -1.0860182406     0.4070826187     0.7569340792
    5      C      -0.5923183247     0.8952414136    -0.6140963553
    6      N       0.8089459603     1.4611988173    -0.4380584036
    7      H       2.5787169701     0.5063497699     0.0745334286
    8      H       1.2128149677    -1.8023299881    -0.0910688453
    9      H      -1.0466473263    -1.1585362585    -1.5678176585
   10      H      -1.8821129101     0.8669933590     1.3320143018
   11      H      -1.2386880211     1.5849442967    -1.1548052492
   12      C      -0.3191879231    -0.6424679763     1.0941111284
   13      H      -0.3430731951    -1.2285276527     2.0063114393
 ----------------------------------------------------------------

   11    -286.8516513756      7.34E-09 Convergence criterion met
 Total energy in the final basis set = -286.85165138
 Final energy is   -286.851651375634
 **  OPTIMIZATION CONVERGED  **

                    Orbital Energies (a.u.)
 --------------------------------------------------------------

 Alpha MOs
 -- Occupied --
-14.322 -10.224 -10.220 -10.210 -10.204 -10.201 -10.197  -0.952
 -0.821  -0.726  -0.705  -0.579  -0.573  -0.531  -0.512  -0.472
 -0.418  -0.410  -0.381  -0.373  -0.348  -0.294  -0.271  -0.258
 -0.196

 Beta MOs
 -- Occupied --
-14.321 -10.224 -10.221 -10.210 -10.200 -10.196 -10.190  -0.949
 -0.815  -0.725  -0.690  -0.577  -0.561  -0.527  -0.509  -0.463
 -0.414  -0.406  -0.380  -0.369  -0.342  -0.287  -0.261  -0.255

          Ground-State Mulliken Net Atomic Charges

     Atom                 Charge (a.u.)    Spin (a.u.)
  --------------------------------------------------------
      1 C                     0.092292      -0.008995
      2 C                    -0.245823      -0.043975
      3 C                    -0.096833       0.975871
      4 C                    -0.087644       0.039820
      5 C                    -0.094684      -0.045098
      6 N                    -0.325131       0.022194
      7 H                     0.149679      -0.000165
      8 H                     0.133856       0.002852
      9 H                     0.138932      -0.026630
     10 H                     0.146052       0.000902
     11 H                     0.139853       0.003025
     12 C                    -0.096149       0.079905
     13 H                     0.145601       0.000295
  --------------------------------------------------------
  Sum of atomic charges =    -0.000000

                    Cartesian Multipole Moments
 -----------------------------------------------------------------
    Charge (ESU x 10^10)
                -0.0000
    Dipole Moment (Debye)
         X      -0.6675      Y      -2.0404      Z       1.0117
       Tot       2.3733
    Quadrupole Moments (Debye-Ang)
        XX     -37.2501     XY      -3.7263     YY     -43.5146
        XZ       1.0843     YZ       0.2662     ZZ     -40.7090

 Total job time:  23.05s(wall), 51.67s(cpu)
        *  Thank you very much for using Q-Chem.  Have a nice day.  *
