 Q-Chem 5.0, Q-Chem, Inc., Pleasanton, CA (2017)
 Q-Chem 5.0.2 for Intel X86 EM64T Linux

User input:
--------------------------------------------------------------
$molecule
0 2
C        1.2597448084    0.3321969575    0.1068559308
C        0.6489960655   -1.0675865977   -0.1936357648
C       -0.7132319978   -0.9451369054   -0.7330007774
C       -1.0391926723    0.2469393086    0.1796590851
C       -0.4931654901    1.4551200509   -0.5688286865
N        0.7869585746    1.4734679724   -0.6470928761
H        2.3049806421    0.3294328027    0.3945910797
H        1.2971764082   -1.9370483221   -0.2233693693
H       -1.3824965898   -1.7736001156   -0.9325051877
H       -2.0343718091    0.3223283394    0.6168036708
H       -1.1096161737    2.1736055418   -1.1056649509
C        0.2068598179   -0.1957771508    1.0222708238
H        0.2673584161   -0.4139418817    2.0839170225
$end

$rem
method                b3lyp
basis                 6-31+g(d,p)
unrestricted          true
symmetry              off
sym_ignore            true
incdft                false
incfock               0
scf_convergence       8
thresh                14
jobtype               sp
scf_guess             read
scf_algorithm         diis
max_scf_cycles        100
scf_final_print       1
$end

--------------------------------------------------------------

             Standard Nuclear Orientation (Angstroms)
    I     Atom           X                Y                Z
 ----------------------------------------------------------------
    1      C       1.2597448084     0.3321969575     0.1068559308
    2      C       0.6489960655    -1.0675865977    -0.1936357648
    3      C      -0.7132319978    -0.9451369054    -0.7330007774
    4      C      -1.0391926723     0.2469393086     0.1796590851
    5      C      -0.4931654901     1.4551200509    -0.5688286865
    6      N       0.7869585746     1.4734679724    -0.6470928761
    7      H       2.3049806421     0.3294328027     0.3945910797
    8      H       1.2971764082    -1.9370483221    -0.2233693693
    9      H      -1.3824965898    -1.7736001156    -0.9325051877
   10      H      -2.0343718091     0.3223283394     0.6168036708
   11      H      -1.1096161737     2.1736055418    -1.1056649509
   12      C       0.2068598179    -0.1957771508     1.0222708238
   13      H       0.2673584161    -0.4139418817     2.0839170225
 ----------------------------------------------------------------

    2    -286.8568785878      9.03E-10 Convergence criterion met
 Total energy in the final basis set = -286.85687859

                    Orbital Energies (a.u.)
 --------------------------------------------------------------

 Alpha MOs
 -- Occupied --
-14.334 -10.233 -10.231 -10.223 -10.221 -10.220 -10.211  -0.980
 -0.867  -0.760  -0.673  -0.615  -0.583  -0.549  -0.518  -0.464
 -0.450  -0.420  -0.410  -0.369  -0.344  -0.317  -0.282  -0.270
 -0.180

 Beta MOs
 -- Occupied --
-14.334 -10.233 -10.231 -10.221 -10.220 -10.220 -10.199  -0.976
 -0.861  -0.753  -0.661  -0.611  -0.579  -0.544  -0.511  -0.458
 -0.446  -0.415  -0.406  -0.360  -0.340  -0.304  -0.275  -0.266

          Ground-State Mulliken Net Atomic Charges

     Atom                 Charge (a.u.)    Spin (a.u.)
  --------------------------------------------------------
      1 C                    -0.252763       0.013895
      2 C                    -0.105839      -0.100926
      3 C                    -0.112111       1.000164
      4 C                    -0.109622      -0.086708
      5 C                    -0.011946      -0.001511
      6 N                    -0.177757       0.027052
      7 H                     0.144852       0.003257
      8 H                     0.140091       0.000360
      9 H                     0.136871      -0.039868
     10 H                     0.131484       0.008308
     11 H                     0.131973       0.001596
     12 C                    -0.050420       0.166696
     13 H                     0.135187       0.007685
  --------------------------------------------------------
  Sum of atomic charges =    -0.000000

                    Cartesian Multipole Moments
 -----------------------------------------------------------------
    Charge (ESU x 10^10)
                 0.0000
    Dipole Moment (Debye)
         X      -1.2641      Y      -1.8140      Z       1.9029
       Tot       2.9172
    Quadrupole Moments (Debye-Ang)
        XX     -38.6635     XY      -4.3981     YY     -43.2517
        XZ       2.2150     YZ       0.9939     ZZ     -43.3340

 Total job time:  6.02s(wall), 11.87s(cpu)
        *  Thank you very much for using Q-Chem.  Have a nice day.  *
