 Q-Chem 5.0, Q-Chem, Inc., Pleasanton, CA (2017)
 Q-Chem 5.0.2 for Intel X86 EM64T Linux

User input:
--------------------------------------------------------------
$molecule
0 2
C        1.5317691294    0.3875039343   -0.4399566548
C        0.8337690146   -0.8076834498    0.0900348634
C       -0.6165411829   -1.0368339542   -0.3009473845
C       -1.1067408798    0.3381790563    0.1309002093
C       -0.4241352321    1.5188815620   -0.4507590603
N        0.8829745997    1.5199230081   -0.7107587759
H        2.6067161170    0.3678267039   -0.6028350782
H        1.4364525296   -1.6986929617    0.2546796319
H       -1.1326541347   -1.8966532769   -0.7027413773
H       -2.1710226880    0.4345942093    0.3358014699
H       -0.9905233400    2.4134509508   -0.6984913175
C       -0.3202338580   -0.5756028613    1.0547054956
H       -0.5298300744   -0.9648929203    2.0403679785
$end

$rem
method                b3lyp
basis                 6-31+g(d,p)
unrestricted          true
symmetry              off
sym_ignore            true
incdft                false
incfock               0
scf_convergence       6
thresh                14
jobtype               sp
scf_guess             read
scf_algorithm         diis
max_scf_cycles        100
stability_analysis    true
max_cis_cycles        100
cis_n_roots           4
$end

--------------------------------------------------------------

             Standard Nuclear Orientation (Angstroms)
    I     Atom           X                Y                Z
 ----------------------------------------------------------------
    1      C       1.5317691294     0.3875039343    -0.4399566548
    2      C       0.8337690146    -0.8076834498     0.0900348634
    3      C      -0.6165411829    -1.0368339542    -0.3009473845
    4      C      -1.1067408798     0.3381790563     0.1309002093
    5      C      -0.4241352321     1.5188815620    -0.4507590603
    6      N       0.8829745997     1.5199230081    -0.7107587759
    7      H       2.6067161170     0.3678267039    -0.6028350782
    8      H       1.4364525296    -1.6986929617     0.2546796319
    9      H      -1.1326541347    -1.8966532769    -0.7027413773
   10      H      -2.1710226880     0.4345942093     0.3358014699
   11      H      -0.9905233400     2.4134509508    -0.6984913175
   12      C      -0.3202338580    -0.5756028613     1.0547054956
   13      H      -0.5298300744    -0.9648929203     2.0403679785
 ----------------------------------------------------------------

    2    -286.8792976383      1.04E-09 Convergence criterion met
 Total energy in the final basis set = -286.87929764

         TDDFT/TDA Excitation Energies
 ---------------------------------------------------

 Excited state   1: excitation energy (eV) =    2.8207
 Total energy for state  1:                  -286.77563899 au
    <S**2>     :  0.7804
    Trans. Mom.: -0.0008 X  -0.0015 Y   0.0008 Z
    Strength   :     0.0000002492
    D( 24) --> S(  1) amplitude =  0.9970 beta

 Excited state   2: excitation energy (eV) =    3.5321
 Total energy for state  2:                  -286.74949594 au
    <S**2>     :  0.7681
    Trans. Mom.: -0.3892 X   0.2322 Y   0.0116 Z
    Strength   :     0.0177862124
    S(  1) --> V(  1) amplitude =  0.9207 alpha
    S(  1) --> V(  5) amplitude =  0.1676 alpha
    D( 23) --> S(  1) amplitude =  0.3011 beta

 Excited state   3: excitation energy (eV) =    4.1714
 Total energy for state  3:                  -286.72600018 au
    <S**2>     :  0.7906
    Trans. Mom.:  0.0038 X   0.0071 Y  -0.0027 Z
    Strength   :     0.0000073430
    S(  1) --> V(  2) amplitude =  0.9916 alpha

 Excited state   4: excitation energy (eV) =    4.5467
 Total energy for state  4:                  -286.71220774 au
    <S**2>     :  2.4845
    Trans. Mom.:  0.0112 X  -0.0376 Y  -0.0666 Z
    Strength   :     0.0006656626
    D( 24) --> V(  1) amplitude = -0.8459 alpha
    D( 24) --> V(  5) amplitude = -0.2264 alpha
    D( 24) --> V(  2) amplitude = -0.3610 beta
    D( 24) --> V(  5) amplitude =  0.1725 beta

 ---------------------------------------------------

                    Orbital Energies (a.u.)
 --------------------------------------------------------------

 Alpha MOs
 -- Occupied --
-14.331 -10.226 -10.226 -10.226 -10.225 -10.225 -10.225  -0.970
 -0.907  -0.760  -0.652  -0.645  -0.597  -0.553  -0.490  -0.482
 -0.473  -0.417  -0.405  -0.373  -0.348  -0.310  -0.309  -0.239
 -0.184

 Beta MOs
 -- Occupied --
-14.334 -10.226 -10.226 -10.223 -10.223 -10.218 -10.217  -0.966
 -0.905  -0.748  -0.641  -0.640  -0.592  -0.550  -0.484  -0.476
 -0.472  -0.413  -0.387  -0.370  -0.333  -0.309  -0.305  -0.239

          Ground-State Mulliken Net Atomic Charges

     Atom                 Charge (a.u.)    Spin (a.u.)
  --------------------------------------------------------
      1 C                    -0.100759       0.605706
      2 C                    -0.173201      -0.050554
      3 C                    -0.014160       0.081490
      4 C                    -0.172178      -0.050597
      5 C                    -0.102053       0.605374
      6 N                    -0.216376      -0.201758
      7 H                     0.124245      -0.032288
      8 H                     0.130359       0.000805
      9 H                     0.141388      -0.004008
     10 H                     0.130383       0.000801
     11 H                     0.124218      -0.032261
     12 C                    -0.013255       0.081282
     13 H                     0.141390      -0.003993
  --------------------------------------------------------
  Sum of atomic charges =    -0.000000

                    Cartesian Multipole Moments
 -----------------------------------------------------------------
    Charge (ESU x 10^10)
                -0.0000
    Dipole Moment (Debye)
         X      -1.5157      Y      -2.6095      Z       1.2209
       Tot       3.2554
    Quadrupole Moments (Debye-Ang)
        XX     -38.5730     XY      -3.9678     YY     -43.1826
        XZ       0.6539     YZ       0.9559     ZZ     -43.0804

 Total job time:  202.37s(wall), 194.03s(cpu)
        *  Thank you very much for using Q-Chem.  Have a nice day.  *
