 Q-Chem 5.0, Q-Chem, Inc., Pleasanton, CA (2017)
 Q-Chem 5.0.2 for Intel X86 EM64T Linux

User input:
--------------------------------------------------------------
$molecule
0 2
C        1.3772927928    0.3698162948   -0.1401522876
C        0.7345151415   -0.9819211461   -0.2410781642
C       -0.7143132167   -0.9860541392   -0.5934669443
C       -1.0545037639    0.3613697780    0.1261745393
C       -0.4657318055    1.5195505193   -0.5790755395
N        0.8385188046    1.5130385872   -0.6648508329
H        2.3888016886    0.3959570566    0.2526770218
H        1.3349612127   -1.8828510860   -0.1797593883
H       -1.2774123096   -1.8843639932   -0.3420142180
H       -2.0562753312    0.4604552393    0.5385825068
H       -1.0564370496    2.3084423775   -1.0343977427
C        0.0259179073   -0.3667900974    0.9347706932
H       -0.1083483134   -0.8205776329    1.9145479911
$end

$rem
method                b3lyp
basis                 6-31+g(d,p)
unrestricted          true
symmetry              off
sym_ignore            true
incdft                false
incfock               0
scf_convergence       8
thresh                14
jobtype               sp
scf_guess             core
scf_guess_mix         5
scf_algorithm         diis
max_scf_cycles        100
$end

--------------------------------------------------------------

             Standard Nuclear Orientation (Angstroms)
    I     Atom           X                Y                Z
 ----------------------------------------------------------------
    1      C       1.3772927928     0.3698162948    -0.1401522876
    2      C       0.7345151415    -0.9819211461    -0.2410781642
    3      C      -0.7143132167    -0.9860541392    -0.5934669443
    4      C      -1.0545037639     0.3613697780     0.1261745393
    5      C      -0.4657318055     1.5195505193    -0.5790755395
    6      N       0.8385188046     1.5130385872    -0.6648508329
    7      H       2.3888016886     0.3959570566     0.2526770218
    8      H       1.3349612127    -1.8828510860    -0.1797593883
    9      H      -1.2774123096    -1.8843639932    -0.3420142180
   10      H      -2.0562753312     0.4604552393     0.5385825068
   11      H      -1.0564370496     2.3084423775    -1.0343977427
   12      C       0.0259179073    -0.3667900974     0.9347706932
   13      H      -0.1083483134    -0.8205776329     1.9145479911
 ----------------------------------------------------------------

   22    -286.8141332062      7.33E-09 Convergence criterion met
 Total energy in the final basis set = -286.81413321

                    Orbital Energies (a.u.)
 --------------------------------------------------------------

 Alpha MOs
 -- Occupied --
-14.331 -10.252 -10.246 -10.232 -10.230 -10.228 -10.219  -0.979
 -0.887  -0.767  -0.655  -0.636  -0.613  -0.557  -0.506  -0.461
 -0.450  -0.433  -0.423  -0.380  -0.374  -0.321  -0.280  -0.257
 -0.137

 Beta MOs
 -- Occupied --
-14.331 -10.253 -10.243 -10.228 -10.227 -10.224 -10.215  -0.974
 -0.883  -0.760  -0.648  -0.627  -0.610  -0.553  -0.501  -0.458
 -0.443  -0.430  -0.412  -0.374  -0.366  -0.303  -0.273  -0.247

          Ground-State Mulliken Net Atomic Charges

     Atom                 Charge (a.u.)    Spin (a.u.)
  --------------------------------------------------------
      1 C                    -0.245102       0.248601
      2 C                    -0.065678       0.044186
      3 C                    -0.142059       0.606907
      4 C                    -0.263470      -0.043647
      5 C                     0.015229       0.245329
      6 N                    -0.199029      -0.007021
      7 H                     0.142841      -0.009209
      8 H                     0.150762      -0.007267
      9 H                     0.152777      -0.004948
     10 H                     0.139653      -0.002852
     11 H                     0.128467      -0.013450
     12 C                     0.036907      -0.071637
     13 H                     0.148703       0.015007
  --------------------------------------------------------
  Sum of atomic charges =    -0.000000

                    Cartesian Multipole Moments
 -----------------------------------------------------------------
    Charge (ESU x 10^10)
                -0.0000
    Dipole Moment (Debye)
         X      -1.0335      Y      -2.5542      Z       2.1012
       Tot       3.4651
    Quadrupole Moments (Debye-Ang)
        XX     -39.1153     XY      -4.7870     YY     -43.5530
        XZ       0.8166     YZ      -0.4556     ZZ     -44.3203

 Total job time:  33.08s(wall), 113.33s(cpu)
        *  Thank you very much for using Q-Chem.  Have a nice day.  *
