 Q-Chem 5.0, Q-Chem, Inc., Pleasanton, CA (2017)
 Q-Chem 5.0.2 for Intel X86 EM64T Linux

User input:
--------------------------------------------------------------
$molecule
0 2
C        1.4682868321    0.4430805743   -0.3533865526
C        0.8844022873   -0.7856752825    0.2151865042
C       -0.7449520357   -0.8069154899    0.1733851284
C       -1.3123418507    0.4543349172   -0.3313042279
C       -0.5485538449    1.5422439192   -0.5750737492
N        0.8458281931    1.5355327297   -0.6342302106
H        2.5297900783    0.3980229984   -0.6089834875
H        1.4422790578   -1.6995033966    0.0014279069
H       -1.2580007387   -1.7281406933   -0.1086990447
H       -2.3831085016    0.4873436658   -0.5171458804
H       -1.0036800811    2.4809373004   -0.8802618728
C        0.0353959252   -0.7960443043    1.4088119362
H        0.0446546791   -1.5252169379    2.2102735501
****
C        1.3179286975    0.3254003044    0.1677545743
C        0.6049106088   -1.0115354423   -0.1160610501
C       -0.7149839448   -0.5389001994   -0.7750849349
C       -1.0624789205    0.2277356379    0.4707455087
C       -0.5490614836    0.9932149374   -0.7638775987
N        0.8041042710    1.3783649014   -0.6235733635
H        2.3652096092    0.3429859612    0.4487303436
H        1.1187408091   -1.9576460446   -0.2441067054
H       -1.3464861185   -1.0766388259   -1.4733907095
H       -2.0209629071    0.4087076432    0.9441742701
H       -1.2177217093    1.6242976103   -1.3389779888
C        0.2582126761   -0.2446218411    1.1297599739
H        0.4425884124   -0.4713646426    2.1739076807
$end

$rem
method                b3lyp
basis                 6-31g(d)
unrestricted          true
symmetry              off
sym_ignore            true
incdft                false
incfock               0
scf_convergence       8
thresh                14
jobtype               fsm
scf_guess             core
scf_guess_mix         5
scf_algorithm         diis
max_scf_cycles        100
fsm_nnode             21
fsm_ngrad             6
fsm_mode              2
fsm_opt_mode          2
$end

--------------------------------------------------------------

   20    -286.8549501785      8.18E-09 Convergence criterion met
 Total energy in the final basis set = -286.85495018
   20    -286.8249837604      6.89E-09 Convergence criterion met
 Total energy in the final basis set = -286.82498376
   21    -286.8523759757      6.97E-09 Convergence criterion met
 Total energy in the final basis set = -286.85237598
   21    -286.8528120617      4.59E-09 Convergence criterion met
 Total energy in the final basis set = -286.85281206
   22    -286.8467956430      6.52E-09 Convergence criterion met
 Total energy in the final basis set = -286.84679564
   22    -286.8517688866      2.87E-09 Convergence criterion met
 Total energy in the final basis set = -286.85176889
   20    -286.8216735389      6.71E-09 Convergence criterion met
 Total energy in the final basis set = -286.82167354
   20    -286.8218763232      8.55E-09 Convergence criterion met
 Total energy in the final basis set = -286.77204356
   26    -286.7711871172      4.54E-09 Convergence criterion met
 Total energy in the final basis set = -286.77118712
   26    -286.7720183114      6.01E-09 Convergence criterion met
 Total energy in the final basis set = -286.77201831
   26    -286.7712221355      4.58E-09 Convergence criterion met
 Total energy in the final basis set = -286.77122214
   26    -286.7720208208      5.29E-09 Convergence criterion met
 Total energy in the final basis set = -286.77202082
   25    -286.7712301722      9.74E-09 Convergence criterion met
 Total energy in the final basis set = -286.77123017
   26    -286.7720367781      4.98E-09 Convergence criterion met
 Total energy in the final basis set = -286.77203678
   25    -286.7712205668      9.71E-09 Convergence criterion met
 Total energy in the final basis set = -286.77122057

                    Orbital Energies (a.u.)
 --------------------------------------------------------------

 Alpha MOs
 -- Occupied --
-14.329 -10.234 -10.230 -10.227 -10.219 -10.205 -10.190  -0.960
 -0.856  -0.752  -0.628  -0.627  -0.603  -0.536  -0.490  -0.450
 -0.446  -0.421  -0.408  -0.365  -0.350  -0.295  -0.277  -0.231
 -0.132

 Beta MOs
 -- Occupied --
-14.329 -10.232 -10.229 -10.226 -10.219 -10.205 -10.178  -0.957
 -0.848  -0.748  -0.625  -0.610  -0.599  -0.531  -0.487  -0.446
 -0.436  -0.419  -0.402  -0.358  -0.347  -0.287  -0.270  -0.212

          Ground-State Mulliken Net Atomic Charges

     Atom                 Charge (a.u.)    Spin (a.u.)
  --------------------------------------------------------
      1 C                     0.015248       0.148115
      2 C                    -0.183894      -0.032113
      3 C                    -0.118502       0.862095
      4 C                    -0.242571      -0.018017
      5 C                     0.105820       0.037551
      6 N                    -0.337677       0.010039
      7 H                     0.156480      -0.004277
      8 H                     0.144632      -0.001430
      9 H                     0.139454      -0.040524
     10 H                     0.142193       0.000409
     11 H                     0.149709      -0.001204
     12 C                    -0.126202       0.031574
     13 H                     0.155311       0.007782
  --------------------------------------------------------
  Sum of atomic charges =    -0.000000

                    Cartesian Multipole Moments
 -----------------------------------------------------------------
    Charge (ESU x 10^10)
                 0.0000
    Dipole Moment (Debye)
         X      -0.9174      Y      -1.6767      Z       1.1226
       Tot       2.2165
    Quadrupole Moments (Debye-Ang)
        XX     -36.8760     XY      -3.7436     YY     -41.7917
        XZ       1.4242     YZ      -0.6464     ZZ     -42.4807

             Standard Nuclear Orientation (Angstroms)
    I     Atom           X                Y                Z
 ----------------------------------------------------------------
    1      C       1.4106984777     0.3650675165    -0.1187638633
    2      C       0.6721363227    -0.9442023830    -0.1020296904
    3      C      -0.7078941718    -0.8808218972    -0.6316484600
    4      C      -1.0723250897     0.3193317990     0.2499440486
    5      C      -0.4741918042     1.4282876815    -0.5649707941
    6      N       0.8129544724     1.4524521530    -0.6769124173
    7      H       2.4609089161     0.4093201713     0.1537268742
    8      H       1.2723779471    -1.8485148633    -0.1356477593
    9      H      -1.3703683551    -1.7180001162    -0.8054319121
   10      H      -2.1202429785     0.4943299147     0.5141571743
   11      H      -1.1009246690     2.0985815754    -1.1468328510
   12      C       0.0777664072    -0.3437308751     1.1368957444
   13      H       0.1060902825    -0.8260289187     2.1194715406
 ----------------------------------------------------------------

 Total job time:  2190.44s(wall), 4465.84s(cpu)
        *  Thank you very much for using Q-Chem.  Have a nice day.  *
