 Q-Chem 5.0, Q-Chem, Inc., Pleasanton, CA (2017)
 Q-Chem 5.0.2 for Intel X86 EM64T Linux

User input:
--------------------------------------------------------------
$molecule
0 2
C        1.3772927928    0.3698162948   -0.1401522876
C        0.7345151415   -0.9819211461   -0.2410781642
C       -0.7143132167   -0.9860541392   -0.5934669443
C       -1.0545037639    0.3613697780    0.1261745393
C       -0.4657318055    1.5195505193   -0.5790755395
N        0.8385188046    1.5130385872   -0.6648508329
H        2.3888016886    0.3959570566    0.2526770218
H        1.3349612127   -1.8828510860   -0.1797593883
H       -1.2774123096   -1.8843639932   -0.3420142180
H       -2.0562753312    0.4604552393    0.5385825068
H       -1.0564370496    2.3084423775   -1.0343977427
C        0.0259179073   -0.3667900974    0.9347706932
H       -0.1083483134   -0.8205776329    1.9145479911
$end

$rem
method                b3lyp
basis                 6-31+g(d,p)
unrestricted          true
symmetry              off
sym_ignore            true
incdft                false
incfock               0
scf_convergence       8
thresh                14
jobtype               rpath
scf_guess             core
scf_guess_mix         5
scf_algorithm         diis
max_scf_cycles        100
rpath_direction       1
rpath_tol_displacement 1000
rpath_max_cycles      50
geom_opt_max_cycles   300
geom_opt_hessian      read
$end

--------------------------------------------------------------

   22    -286.8141332062      7.33E-09 Convergence criterion met
 Total energy in the final basis set = -286.81413321
   23    -286.8174889950      5.47E-09 Convergence criterion met
 Total energy in the final basis set = -286.81748899
   23    -286.8174742469      5.75E-09 Convergence criterion met
 Total energy in the final basis set = -286.81747425
   23    -286.8175008132      5.60E-09 Convergence criterion met
 Total energy in the final basis set = -286.81750081
   22    -286.8253683845      7.78E-09 Convergence criterion met
 Total energy in the final basis set = -286.82536838
   22    -286.8253609543      6.31E-09 Convergence criterion met
 Total energy in the final basis set = -286.82536095
   22    -286.8253919553      6.92E-09 Convergence criterion met
 Total energy in the final basis set = -286.82539196
   21    -286.8343746612      9.82E-09 Convergence criterion met
 Total energy in the final basis set = -286.85651274
   21    -286.8568822594      3.86E-09 Convergence criterion met
 Total energy in the final basis set = -286.85688226
   21    -286.8568407031      4.11E-09 Convergence criterion met
 Total energy in the final basis set = -286.85684070
   21    -286.8568882972      3.89E-09 Convergence criterion met
 Total energy in the final basis set = -286.85688830
   20    -286.8528029681      6.62E-09 Convergence criterion met
 Total energy in the final basis set = -286.85280297
   21    -286.8568912045      3.87E-09 Convergence criterion met
 Total energy in the final basis set = -286.85689120
   21    -286.8568905965      3.97E-09 Convergence criterion met
 Total energy in the final basis set = -286.85689060
   21    -286.8568918278      3.91E-09 Convergence criterion met
 Total energy in the final basis set = -286.85689183

                    Orbital Energies (a.u.)
 --------------------------------------------------------------

 Alpha MOs
 -- Occupied --
-14.334 -10.233 -10.231 -10.223 -10.221 -10.220 -10.211  -0.980
 -0.867  -0.760  -0.674  -0.615  -0.583  -0.549  -0.518  -0.465
 -0.450  -0.420  -0.410  -0.369  -0.344  -0.317  -0.282  -0.271
 -0.180

 Beta MOs
 -- Occupied --
-14.334 -10.233 -10.231 -10.221 -10.220 -10.220 -10.199  -0.976
 -0.861  -0.753  -0.661  -0.611  -0.579  -0.544  -0.511  -0.458
 -0.446  -0.415  -0.406  -0.360  -0.340  -0.304  -0.275  -0.266

          Ground-State Mulliken Net Atomic Charges

     Atom                 Charge (a.u.)    Spin (a.u.)
  --------------------------------------------------------
      1 C                    -0.252696       0.013917
      2 C                    -0.106170      -0.100941
      3 C                    -0.111992       1.000084
      4 C                    -0.109647      -0.086752
      5 C                    -0.011744      -0.001447
      6 N                    -0.177921       0.027083
      7 H                     0.144880       0.003266
      8 H                     0.140081       0.000371
      9 H                     0.136843      -0.039904
     10 H                     0.131492       0.008336
     11 H                     0.131932       0.001596
     12 C                    -0.050251       0.166704
     13 H                     0.135193       0.007687
  --------------------------------------------------------
  Sum of atomic charges =    -0.000000

                    Cartesian Multipole Moments
 -----------------------------------------------------------------
    Charge (ESU x 10^10)
                -0.0000
    Dipole Moment (Debye)
         X      -1.2518      Y      -1.7839      Z       1.9401
       Tot       2.9178
    Quadrupole Moments (Debye-Ang)
        XX     -38.6746     XY      -4.4032     YY     -43.1479
        XZ       2.1911     YZ       1.0456     ZZ     -43.4226

             Standard Nuclear Orientation (Angstroms)
    I     Atom           X                Y                Z
 ----------------------------------------------------------------
    1      C       1.3772927928     0.3698162948    -0.1401522876
    2      C       0.7345151415    -0.9819211461    -0.2410781642
    3      C      -0.7143132167    -0.9860541392    -0.5934669443
    4      C      -1.0545037639     0.3613697780     0.1261745393
    5      C      -0.4657318055     1.5195505193    -0.5790755395
    6      N       0.8385188046     1.5130385872    -0.6648508329
    7      H       2.3888016886     0.3959570566     0.2526770218
    8      H       1.3349612127    -1.8828510860    -0.1797593883
    9      H      -1.2774123096    -1.8843639932    -0.3420142180
   10      H      -2.0562753312     0.4604552393     0.5385825068
   11      H      -1.0564370496     2.3084423775    -1.0343977427
   12      C       0.0259179073    -0.3667900974     0.9347706932
   13      H      -0.1083483134    -0.8205776329     1.9145479911
 ----------------------------------------------------------------

 Total job time:  12446.55s(wall), 38746.82s(cpu)
        *  Thank you very much for using Q-Chem.  Have a nice day.  *
