 Q-Chem 5.0, Q-Chem, Inc., Pleasanton, CA (2017)
 Q-Chem 5.0.2 for Intel X86 EM64T Linux

User input:
--------------------------------------------------------------
$molecule
0 2
C        1.4686732685    0.4434648827   -0.3530738584
C        0.8844898150   -0.7852997800    0.2158355540
C       -0.7449175472   -0.8064664611    0.1739773918
C       -1.3117588051    0.4547650255   -0.3303380734
C       -0.5481144770    1.5423396026   -0.5757289614
N        0.8460300516    1.5355555592   -0.6348741906
H        2.5303145794    0.3995219587   -0.6079325517
H        1.4411642486   -1.6994013932    0.0000858207
H       -1.2584586499   -1.7272652578   -0.1086158969
H       -2.3826894973    0.4875523101   -0.5153848406
H       -1.0043020908    2.4797194493   -0.8832408489
C        0.0350901728   -0.7972998302    1.4092860838
H        0.0444789317   -1.5271860652    2.2100043717
$end

$rem
method                b3lyp
basis                 6-31g(d)
unrestricted          true
symmetry              off
sym_ignore            true
incdft                false
incfock               0
scf_convergence       8
thresh                14
jobtype               opt
scf_guess             core
scf_guess_mix         5
scf_algorithm         diis
max_scf_cycles        100
geom_opt_max_cycles   300
$end

--------------------------------------------------------------

   20    -286.8549487879      9.79E-09 Convergence criterion met
 Total energy in the final basis set = -286.85494879
   16    -286.8549500445      6.38E-09 Convergence criterion met
 Total energy in the final basis set = -286.85495004

             Standard Nuclear Orientation (Angstroms)
    I     Atom           X                Y                Z
 ----------------------------------------------------------------
    1      C       1.4682868321     0.4430805743    -0.3533865526
    2      C       0.8844022873    -0.7856752825     0.2151865042
    3      C      -0.7449520357    -0.8069154899     0.1733851284
    4      C      -1.3123418507     0.4543349172    -0.3313042279
    5      C      -0.5485538449     1.5422439192    -0.5750737492
    6      N       0.8458281931     1.5355327297    -0.6342302106
    7      H       2.5297900783     0.3980229984    -0.6089834875
    8      H       1.4422790578    -1.6995033966     0.0014279069
    9      H      -1.2580007387    -1.7281406933    -0.1086990447
   10      H      -2.3831085016     0.4873436658    -0.5171458804
   11      H      -1.0036800811     2.4809373004    -0.8802618728
   12      C       0.0353959252    -0.7960443043     1.4088119362
   13      H       0.0446546791    -1.5252169379     2.2102735501
 ----------------------------------------------------------------

   16    -286.8549501785      6.39E-09 Convergence criterion met
 Total energy in the final basis set = -286.85495018
 Final energy is   -286.854950178455
 **  OPTIMIZATION CONVERGED  **

                    Orbital Energies (a.u.)
 --------------------------------------------------------------

 Alpha MOs
 -- Occupied --
-14.323 -10.230 -10.224 -10.221 -10.219 -10.206 -10.195  -0.934
 -0.868  -0.765  -0.667  -0.641  -0.570  -0.532  -0.491  -0.482
 -0.451  -0.425  -0.377  -0.373  -0.359  -0.300  -0.255  -0.229
 -0.219

 Beta MOs
 -- Occupied --
-14.323 -10.229 -10.224 -10.221 -10.207 -10.204 -10.194  -0.932
 -0.858  -0.763  -0.659  -0.639  -0.556  -0.527  -0.488  -0.473
 -0.447  -0.422  -0.375  -0.371  -0.351  -0.291  -0.250  -0.225

          Ground-State Mulliken Net Atomic Charges

     Atom                 Charge (a.u.)    Spin (a.u.)
  --------------------------------------------------------
      1 C                     0.088754       0.019343
      2 C                    -0.194305      -0.017048
      3 C                    -0.175860      -0.016659
      4 C                    -0.083952       0.040969
      5 C                    -0.009349      -0.014598
      6 N                    -0.391608       0.002400
      7 H                     0.142785       0.005871
      8 H                     0.155337       0.022609
      9 H                     0.155153       0.017060
     10 H                     0.139628       0.003638
     11 H                     0.136798       0.000768
     12 C                    -0.121161       0.958837
     13 H                     0.157780      -0.023190
  --------------------------------------------------------
  Sum of atomic charges =    -0.000000

                    Cartesian Multipole Moments
 -----------------------------------------------------------------
    Charge (ESU x 10^10)
                -0.0000
    Dipole Moment (Debye)
         X      -0.7418      Y      -2.7015      Z       0.4229
       Tot       2.8332
    Quadrupole Moments (Debye-Ang)
        XX     -37.6450     XY      -3.2091     YY     -40.9947
        XZ       1.1239     YZ      -0.3997     ZZ     -42.2599

 Total job time:  55.71s(wall), 158.37s(cpu)
        *  Thank you very much for using Q-Chem.  Have a nice day.  *
