 Q-Chem 5.0, Q-Chem, Inc., Pleasanton, CA (2017)
 Q-Chem 5.0.2 for Intel X86 EM64T Linux

User input:
--------------------------------------------------------------
$molecule
0 2
C        1.3177762897    0.3255932594    0.1681873515
C        0.6048898863   -1.0117254988   -0.1161461509
C       -0.7150233397   -0.5389908367   -0.7751441635
C       -1.0622982375    0.2279471336    0.4705753121
C       -0.5490500607    0.9932927433   -0.7638551816
N        0.8041628415    1.3783267221   -0.6236494114
H        2.3651165381    0.3429290828    0.4489662625
H        1.1192950764   -1.9574672544   -0.2444568955
H       -1.3471117254   -1.0766721015   -1.4729416271
H       -2.0207116347    0.4087472650    0.9442219879
H       -1.2176591413    1.6241911993   -1.3392424657
C        0.2583415736   -0.2447332343    1.1296078552
H        0.4422719338   -0.4714384799    2.1738771267
$end

$rem
method                b3lyp
basis                 6-31g(d)
unrestricted          true
symmetry              off
sym_ignore            true
incdft                false
incfock               0
scf_convergence       8
thresh                14
jobtype               opt
scf_guess             core
scf_guess_mix         5
scf_algorithm         diis
max_scf_cycles        100
geom_opt_max_cycles   300
$end

--------------------------------------------------------------

   20    -286.8249830081      5.77E-09 Convergence criterion met
 Total energy in the final basis set = -286.82498301

             Standard Nuclear Orientation (Angstroms)
    I     Atom           X                Y                Z
 ----------------------------------------------------------------
    1      C       1.3179286975     0.3254003044     0.1677545743
    2      C       0.6049106088    -1.0115354423    -0.1160610501
    3      C      -0.7149839448    -0.5389001994    -0.7750849349
    4      C      -1.0624789205     0.2277356379     0.4707455087
    5      C      -0.5490614836     0.9932149374    -0.7638775987
    6      N       0.8041042710     1.3783649014    -0.6235733635
    7      H       2.3652096092     0.3429859612     0.4487303436
    8      H       1.1187408091    -1.9576460446    -0.2441067054
    9      H      -1.3464861185    -1.0766388259    -1.4733907095
   10      H      -2.0209629071     0.4087076432     0.9441742701
   11      H      -1.2177217093     1.6242976103    -1.3389779888
   12      C       0.2582126761    -0.2446218411     1.1297599739
   13      H       0.4425884124    -0.4713646426     2.1739076807
 ----------------------------------------------------------------

   14    -286.8249837886      2.46E-09 Convergence criterion met
 Total energy in the final basis set = -286.82498379
 Final energy is   -286.824983788631
 **  OPTIMIZATION CONVERGED  **

                    Orbital Energies (a.u.)
 --------------------------------------------------------------

 Alpha MOs
 -- Occupied --
-14.335 -10.215 -10.215 -10.207 -10.207 -10.207 -10.206  -0.986
 -0.836  -0.793  -0.649  -0.588  -0.574  -0.542  -0.533  -0.455
 -0.427  -0.415  -0.395  -0.384  -0.337  -0.275  -0.274  -0.248
 -0.212

 Beta MOs
 -- Occupied --
-14.319 -10.217 -10.216 -10.205 -10.205 -10.205 -10.205  -0.976
 -0.811  -0.789  -0.644  -0.585  -0.568  -0.537  -0.529  -0.453
 -0.423  -0.392  -0.389  -0.378  -0.322  -0.269  -0.257  -0.244

          Ground-State Mulliken Net Atomic Charges

     Atom                 Charge (a.u.)    Spin (a.u.)
  --------------------------------------------------------
      1 C                    -0.044781      -0.080340
      2 C                    -0.124760       0.089577
      3 C                    -0.124673       0.089226
      4 C                    -0.124677       0.089106
      5 C                    -0.045109      -0.080271
      6 N                    -0.285766       0.811527
      7 H                     0.149302       0.001046
      8 H                     0.143977      -0.002527
      9 H                     0.143987      -0.002497
     10 H                     0.143996      -0.002470
     11 H                     0.149354       0.001045
     12 C                    -0.124819       0.089036
     13 H                     0.143970      -0.002457
  --------------------------------------------------------
  Sum of atomic charges =    -0.000000

                    Cartesian Multipole Moments
 -----------------------------------------------------------------
    Charge (ESU x 10^10)
                -0.0000
    Dipole Moment (Debye)
         X      -1.0904      Y      -1.8687      Z       0.8455
       Tot       2.3229
    Quadrupole Moments (Debye-Ang)
        XX     -37.7626     XY      -3.5658     YY     -43.2793
        XZ       2.6801     YZ       1.3215     ZZ     -39.5740

 Total job time:  48.69s(wall), 108.01s(cpu)
        *  Thank you very much for using Q-Chem.  Have a nice day.  *
