 Q-Chem 5.0, Q-Chem, Inc., Pleasanton, CA (2017)
 Q-Chem 5.0.2 for Intel X86 EM64T Linux

User input:
--------------------------------------------------------------
$molecule
0 2
C        1.3800397214    0.3727486308   -0.1465679716
C        0.7318083402   -0.9795902813   -0.2369655050
C       -0.7164156319   -0.9839370970   -0.6042998501
C       -1.0530894865    0.3601685638    0.1287169469
C       -0.4630765339    1.5183429408   -0.5759832129
N        0.8397152218    1.5143907297   -0.6650662999
H        2.3922666876    0.3990073250    0.2462070279
H        1.3337378961   -1.8802747579   -0.1738155364
H       -1.2732449321   -1.8815051222   -0.3342375579
H       -2.0559600881    0.4600457314    0.5398825123
H       -1.0551812423    2.3052324041   -1.0349266661
C        0.0241050553   -0.3698057442    0.9360522726
H       -0.1177192501   -0.8287515653    1.9129614748
$end

$rem
method                b3lyp
basis                 6-31+g(d,p)
unrestricted          true
symmetry              off
sym_ignore            true
incdft                false
incfock               0
scf_convergence       8
thresh                14
jobtype               sp
scf_guess             core
scf_guess_mix         5
scf_algorithm         diis
max_scf_cycles        100
$end

--------------------------------------------------------------

             Standard Nuclear Orientation (Angstroms)
    I     Atom           X                Y                Z
 ----------------------------------------------------------------
    1      C       1.3800397214     0.3727486308    -0.1465679716
    2      C       0.7318083402    -0.9795902813    -0.2369655050
    3      C      -0.7164156319    -0.9839370970    -0.6042998501
    4      C      -1.0530894865     0.3601685638     0.1287169469
    5      C      -0.4630765339     1.5183429408    -0.5759832129
    6      N       0.8397152218     1.5143907297    -0.6650662999
    7      H       2.3922666876     0.3990073250     0.2462070279
    8      H       1.3337378961    -1.8802747579    -0.1738155364
    9      H      -1.2732449321    -1.8815051222    -0.3342375579
   10      H      -2.0559600881     0.4600457314     0.5398825123
   11      H      -1.0551812423     2.3052324041    -1.0349266661
   12      C       0.0241050553    -0.3698057442     0.9360522726
   13      H      -0.1177192501    -0.8287515653     1.9129614748
 ----------------------------------------------------------------

   23    -286.8140839208      5.94E-09 Convergence criterion met
 Total energy in the final basis set = -286.81408392

                    Orbital Energies (a.u.)
 --------------------------------------------------------------

 Alpha MOs
 -- Occupied --
-14.332 -10.251 -10.246 -10.232 -10.230 -10.228 -10.220  -0.979
 -0.888  -0.767  -0.655  -0.637  -0.613  -0.556  -0.505  -0.461
 -0.449  -0.433  -0.422  -0.381  -0.374  -0.322  -0.281  -0.256
 -0.139

 Beta MOs
 -- Occupied --
-14.332 -10.252 -10.243 -10.228 -10.227 -10.224 -10.216  -0.974
 -0.884  -0.759  -0.647  -0.627  -0.610  -0.553  -0.500  -0.458
 -0.443  -0.429  -0.412  -0.374  -0.366  -0.303  -0.274  -0.246

          Ground-State Mulliken Net Atomic Charges

     Atom                 Charge (a.u.)    Spin (a.u.)
  --------------------------------------------------------
      1 C                    -0.240006       0.258081
      2 C                    -0.067862       0.038518
      3 C                    -0.144609       0.611202
      4 C                    -0.268732      -0.045372
      5 C                     0.018232       0.245815
      6 N                    -0.197029      -0.011756
      7 H                     0.142647      -0.009808
      8 H                     0.150433      -0.007072
      9 H                     0.152455      -0.003628
     10 H                     0.139768      -0.002821
     11 H                     0.128456      -0.013586
     12 C                     0.038150      -0.075283
     13 H                     0.148097       0.015709
  --------------------------------------------------------
  Sum of atomic charges =    -0.000000

                    Cartesian Multipole Moments
 -----------------------------------------------------------------
    Charge (ESU x 10^10)
                -0.0000
    Dipole Moment (Debye)
         X      -1.0201      Y      -2.5028      Z       2.1036
       Tot       3.4248
    Quadrupole Moments (Debye-Ang)
        XX     -39.1350     XY      -4.7762     YY     -43.5240
        XZ       0.7522     YZ      -0.5307     ZZ     -44.3720

 Total job time:  46.49s(wall), 120.90s(cpu)
        *  Thank you very much for using Q-Chem.  Have a nice day.  *
