 Q-Chem 5.0, Q-Chem, Inc., Pleasanton, CA (2017)
 Q-Chem 5.0.2 for Intel X86 EM64T Linux

User input:
--------------------------------------------------------------
$molecule
0 2
C        1.3800397214    0.3727486308   -0.1465679716
C        0.7318083402   -0.9795902813   -0.2369655050
C       -0.7164156319   -0.9839370970   -0.6042998501
C       -1.0530894865    0.3601685638    0.1287169469
C       -0.4630765339    1.5183429408   -0.5759832129
N        0.8397152218    1.5143907297   -0.6650662999
H        2.3922666876    0.3990073250    0.2462070279
H        1.3337378961   -1.8802747579   -0.1738155364
H       -1.2732449321   -1.8815051222   -0.3342375579
H       -2.0559600881    0.4600457314    0.5398825123
H       -1.0551812423    2.3052324041   -1.0349266661
C        0.0241050553   -0.3698057442    0.9360522726
H       -0.1177192501   -0.8287515653    1.9129614748
$end

$rem
method                b3lyp
basis                 6-31g(d)
unrestricted          true
symmetry              off
sym_ignore            true
incdft                false
incfock               0
scf_convergence       8
thresh                14
jobtype               sp
scf_guess             read
scf_algorithm         diis
max_scf_cycles        100
$end

--------------------------------------------------------------

             Standard Nuclear Orientation (Angstroms)
    I     Atom           X                Y                Z
 ----------------------------------------------------------------
    1      C       1.3800397214     0.3727486308    -0.1465679716
    2      C       0.7318083402    -0.9795902813    -0.2369655050
    3      C      -0.7164156319    -0.9839370970    -0.6042998501
    4      C      -1.0530894865     0.3601685638     0.1287169469
    5      C      -0.4630765339     1.5183429408    -0.5759832129
    6      N       0.8397152218     1.5143907297    -0.6650662999
    7      H       2.3922666876     0.3990073250     0.2462070279
    8      H       1.3337378961    -1.8802747579    -0.1738155364
    9      H      -1.2732449321    -1.8815051222    -0.3342375579
   10      H      -2.0559600881     0.4600457314     0.5398825123
   11      H      -1.0551812423     2.3052324041    -1.0349266661
   12      C       0.0241050553    -0.3698057442     0.9360522726
   13      H      -0.1177192501    -0.8287515653     1.9129614748
 ----------------------------------------------------------------

    2    -286.7917502346      2.70E-09 Convergence criterion met
 Total energy in the final basis set = -286.79175023

                    Orbital Energies (a.u.)
 --------------------------------------------------------------

 Alpha MOs
 -- Occupied --
-14.316 -10.239 -10.234 -10.218 -10.218 -10.216 -10.208  -0.966
 -0.875  -0.755  -0.644  -0.625  -0.603  -0.547  -0.497  -0.450
 -0.439  -0.423  -0.412  -0.369  -0.363  -0.310  -0.267  -0.244
 -0.126

 Beta MOs
 -- Occupied --
-14.316 -10.240 -10.231 -10.216 -10.216 -10.210 -10.204  -0.961
 -0.871  -0.748  -0.636  -0.616  -0.600  -0.543  -0.492  -0.446
 -0.432  -0.419  -0.401  -0.363  -0.355  -0.291  -0.261  -0.234

          Ground-State Mulliken Net Atomic Charges

     Atom                 Charge (a.u.)    Spin (a.u.)
  --------------------------------------------------------
      1 C                     0.026184       0.247197
      2 C                    -0.172340       0.065552
      3 C                    -0.105522       0.576959
      4 C                    -0.250277       0.015891
      5 C                     0.096337       0.255499
      6 N                    -0.373977      -0.012222
      7 H                     0.152397      -0.010329
      8 H                     0.158675      -0.007375
      9 H                     0.146169      -0.004935
     10 H                     0.148709      -0.003160
     11 H                     0.138848      -0.013934
     12 C                    -0.124916      -0.127286
     13 H                     0.159714       0.018142
  --------------------------------------------------------
  Sum of atomic charges =     0.000000

                    Cartesian Multipole Moments
 -----------------------------------------------------------------
    Charge (ESU x 10^10)
                 0.0000
    Dipole Moment (Debye)
         X      -0.9525      Y      -2.3207      Z       1.9739
       Tot       3.1920
    Quadrupole Moments (Debye-Ang)
        XX     -38.0764     XY      -4.1516     YY     -41.9108
        XZ       0.7191     YZ      -0.5301     ZZ     -42.5744

 Total job time:  13.44s(wall), 7.35s(cpu)
        *  Thank you very much for using Q-Chem.  Have a nice day.  *
