 Q-Chem 5.0, Q-Chem, Inc., Pleasanton, CA (2017)
 Q-Chem 5.0.2 for Intel X86 EM64T Linux

User input:
--------------------------------------------------------------
$molecule
0 2
C        1.4106984777    0.3650675165   -0.1187638633
C        0.6721363227   -0.9442023830   -0.1020296904
C       -0.7078941718   -0.8808218972   -0.6316484600
C       -1.0723250897    0.3193317990    0.2499440486
C       -0.4741918042    1.4282876815   -0.5649707941
N        0.8129544724    1.4524521530   -0.6769124173
H        2.4609089161    0.4093201713    0.1537268742
H        1.2723779471   -1.8485148633   -0.1356477593
H       -1.3703683551   -1.7180001162   -0.8054319121
H       -2.1202429785    0.4943299147    0.5141571743
H       -1.1009246690    2.0985815754   -1.1468328510
C        0.0777664072   -0.3437308751    1.1368957444
H        0.1060902825   -0.8260289187    2.1194715406
$end

$rem
method                b3lyp
basis                 6-31g(d)
unrestricted          true
symmetry              off
sym_ignore            true
incdft                false
incfock               0
scf_convergence       8
thresh                14
jobtype               ts
scf_guess             read
scf_algorithm         diis
max_scf_cycles        100
geom_opt_max_cycles   500
geom_opt_dmax         100
geom_opt_tol_gradient 10
geom_opt_hessian      read
$end

--------------------------------------------------------------

    2    -286.7854710053      8.37E-11 Convergence criterion met
 Total energy in the final basis set = -286.78547101
   15    -286.7853474220      8.24E-09 Convergence criterion met
 Total energy in the final basis set = -286.78534742
   15    -286.7854767433      8.49E-09 Convergence criterion met
 Total energy in the final basis set = -286.78547674
   15    -286.7858698749      8.18E-09 Convergence criterion met
 Total energy in the final basis set = -286.78586987
   15    -286.7864838553      9.71E-09 Convergence criterion met
 Total energy in the final basis set = -286.78648386
   15    -286.7872012488      4.77E-09 Convergence criterion met
 Total energy in the final basis set = -286.78720125
   16    -286.7879082064      2.05E-09 Convergence criterion met
 Total energy in the final basis set = -286.78790821
   16    -286.7885625267      2.66E-09 Convergence criterion met
   14    -286.7916778251      9.12E-09 Convergence criterion met
 Total energy in the final basis set = -286.79167783
   14    -286.7917315097      7.76E-09 Convergence criterion met
 Total energy in the final basis set = -286.79173151
   13    -286.7917490556      7.40E-09 Convergence criterion met
 Total energy in the final basis set = -286.79174906
   12    -286.7917501760      6.15E-09 Convergence criterion met
 Total energy in the final basis set = -286.79175018
   11    -286.7917502349      6.97E-09 Convergence criterion met
 Total energy in the final basis set = -286.79175023
   10    -286.7917502274      6.97E-09 Convergence criterion met
 Total energy in the final basis set = -286.79175023

             Standard Nuclear Orientation (Angstroms)
    I     Atom           X                Y                Z
 ----------------------------------------------------------------
    1      C       1.3800397214     0.3727486308    -0.1465679716
    2      C       0.7318083402    -0.9795902813    -0.2369655050
    3      C      -0.7164156319    -0.9839370970    -0.6042998501
    4      C      -1.0530894865     0.3601685638     0.1287169469
    5      C      -0.4630765339     1.5183429408    -0.5759832129
    6      N       0.8397152218     1.5143907297    -0.6650662999
    7      H       2.3922666876     0.3990073250     0.2462070279
    8      H       1.3337378961    -1.8802747579    -0.1738155364
    9      H      -1.2732449321    -1.8815051222    -0.3342375579
   10      H      -2.0559600881     0.4600457314     0.5398825123
   11      H      -1.0551812423     2.3052324041    -1.0349266661
   12      C       0.0241050553    -0.3698057442     0.9360522726
   13      H      -0.1177192501    -0.8287515653     1.9129614748
 ----------------------------------------------------------------

   10    -286.7917502346      6.45E-09 Convergence criterion met
 Total energy in the final basis set = -286.79175023
 Final energy is   -286.791750234593
 **  OPTIMIZATION CONVERGED  **

                    Orbital Energies (a.u.)
 --------------------------------------------------------------

 Alpha MOs
 -- Occupied --
-14.316 -10.239 -10.234 -10.218 -10.218 -10.216 -10.208  -0.966
 -0.875  -0.755  -0.644  -0.625  -0.603  -0.547  -0.497  -0.450
 -0.439  -0.423  -0.412  -0.369  -0.363  -0.310  -0.267  -0.244
 -0.126

 Beta MOs
 -- Occupied --
-14.316 -10.240 -10.231 -10.216 -10.216 -10.210 -10.204  -0.961
 -0.871  -0.748  -0.636  -0.616  -0.600  -0.543  -0.492  -0.446
 -0.432  -0.419  -0.401  -0.363  -0.355  -0.291  -0.261  -0.234

          Ground-State Mulliken Net Atomic Charges

     Atom                 Charge (a.u.)    Spin (a.u.)
  --------------------------------------------------------
      1 C                     0.026184       0.247196
      2 C                    -0.172340       0.065552
      3 C                    -0.105522       0.576959
      4 C                    -0.250277       0.015891
      5 C                     0.096337       0.255498
      6 N                    -0.373977      -0.012222
      7 H                     0.152397      -0.010329
      8 H                     0.158675      -0.007375
      9 H                     0.146169      -0.004935
     10 H                     0.148709      -0.003160
     11 H                     0.138848      -0.013934
     12 C                    -0.124916      -0.127285
     13 H                     0.159714       0.018142
  --------------------------------------------------------
  Sum of atomic charges =    -0.000000

                    Cartesian Multipole Moments
 -----------------------------------------------------------------
    Charge (ESU x 10^10)
                -0.0000
    Dipole Moment (Debye)
         X      -0.9525      Y      -2.3207      Z       1.9739
       Tot       3.1920
    Quadrupole Moments (Debye-Ang)
        XX     -38.0764     XY      -4.1516     YY     -41.9107
        XZ       0.7191     YZ      -0.5301     ZZ     -42.5744

 Total job time:  448.12s(wall), 1021.45s(cpu)
        *  Thank you very much for using Q-Chem.  Have a nice day.  *
