 Q-Chem 5.0, Q-Chem, Inc., Pleasanton, CA (2017)
 Q-Chem 5.0.2 for Intel X86 EM64T Linux

User input:
--------------------------------------------------------------
$molecule
0 2
C        1.3800397214    0.3727486308   -0.1465679716
C        0.7318083402   -0.9795902813   -0.2369655050
C       -0.7164156319   -0.9839370970   -0.6042998501
C       -1.0530894865    0.3601685638    0.1287169469
C       -0.4630765339    1.5183429408   -0.5759832129
N        0.8397152218    1.5143907297   -0.6650662999
H        2.3922666876    0.3990073250    0.2462070279
H        1.3337378961   -1.8802747579   -0.1738155364
H       -1.2732449321   -1.8815051222   -0.3342375579
H       -2.0559600881    0.4600457314    0.5398825123
H       -1.0551812423    2.3052324041   -1.0349266661
C        0.0241050553   -0.3698057442    0.9360522726
H       -0.1177192501   -0.8287515653    1.9129614748
$end

$rem
method                b3lyp
basis                 6-31+g(d,p)
unrestricted          true
symmetry              off
sym_ignore            true
incdft                false
incfock               0
scf_convergence       8
thresh                14
jobtype               freq
scf_guess             read
scf_algorithm         diis
max_scf_cycles        100
$end

--------------------------------------------------------------

             Standard Nuclear Orientation (Angstroms)
    I     Atom           X                Y                Z
 ----------------------------------------------------------------
    1      C       1.3800397214     0.3727486308    -0.1465679716
    2      C       0.7318083402    -0.9795902813    -0.2369655050
    3      C      -0.7164156319    -0.9839370970    -0.6042998501
    4      C      -1.0530894865     0.3601685638     0.1287169469
    5      C      -0.4630765339     1.5183429408    -0.5759832129
    6      N       0.8397152218     1.5143907297    -0.6650662999
    7      H       2.3922666876     0.3990073250     0.2462070279
    8      H       1.3337378961    -1.8802747579    -0.1738155364
    9      H      -1.2732449321    -1.8815051222    -0.3342375579
   10      H      -2.0559600881     0.4600457314     0.5398825123
   11      H      -1.0551812423     2.3052324041    -1.0349266661
   12      C       0.0241050553    -0.3698057442     0.9360522726
   13      H      -0.1177192501    -0.8287515653     1.9129614748
 ----------------------------------------------------------------

    2    -286.8140839209      1.60E-09 Convergence criterion met
 Total energy in the final basis set = -286.81408392

                    Orbital Energies (a.u.)
 --------------------------------------------------------------

 Alpha MOs
 -- Occupied --
-14.332 -10.251 -10.246 -10.232 -10.230 -10.228 -10.220  -0.979
 -0.888  -0.767  -0.655  -0.637  -0.613  -0.556  -0.505  -0.461
 -0.449  -0.433  -0.422  -0.381  -0.374  -0.322  -0.281  -0.256
 -0.139

 Beta MOs
 -- Occupied --
-14.332 -10.252 -10.243 -10.228 -10.227 -10.224 -10.216  -0.974
 -0.884  -0.759  -0.647  -0.627  -0.610  -0.553  -0.500  -0.458
 -0.443  -0.429  -0.412  -0.374  -0.366  -0.303  -0.274  -0.246

          Ground-State Mulliken Net Atomic Charges

     Atom                 Charge (a.u.)    Spin (a.u.)
  --------------------------------------------------------
      1 C                    -0.240006       0.258082
      2 C                    -0.067862       0.038519
      3 C                    -0.144609       0.611203
      4 C                    -0.268732      -0.045372
      5 C                     0.018232       0.245819
      6 N                    -0.197029      -0.011759
      7 H                     0.142647      -0.009807
      8 H                     0.150433      -0.007073
      9 H                     0.152455      -0.003629
     10 H                     0.139768      -0.002821
     11 H                     0.128456      -0.013587
     12 C                     0.038150      -0.075286
     13 H                     0.148097       0.015710
  --------------------------------------------------------
  Sum of atomic charges =    -0.000000

                    Cartesian Multipole Moments
 -----------------------------------------------------------------
    Charge (ESU x 10^10)
                -0.0000
    Dipole Moment (Debye)
         X      -1.0201      Y      -2.5028      Z       2.1036
       Tot       3.4248
    Quadrupole Moments (Debye-Ang)
        XX     -39.1350     XY      -4.7762     YY     -43.5240
        XZ       0.7522     YZ      -0.5307     ZZ     -44.3720

 Frequency:      -918.25                 174.04                 440.54
 Force Cnst:      2.6545                 0.0943                 0.3124
 Red. Mass:       5.3434                 5.2847                 2.7317
 IR Intens:      221.753                 29.037                  1.192
 Frequency:       465.43                 646.74                 666.76
 Force Cnst:      0.7306                 1.4561                 0.7600
 Red. Mass:       5.7241                 5.9085                 2.9015
 IR Intens:        6.297                 14.083                 39.502
 Frequency:       691.15                 760.66                 790.84
 Force Cnst:      0.8320                 0.5096                 0.5644
 Red. Mass:       2.9563                 1.4949                 1.5315
 IR Intens:        5.730                 22.531                 43.982
 Frequency:       819.78                 854.17                 875.78
 Force Cnst:      0.6480                 0.6333                 0.9155
 Red. Mass:       1.6365                 1.4732                 2.0259
 IR Intens:        4.524                  4.748                 58.100
 Frequency:       915.89                 942.08                 986.13
 Force Cnst:      0.7955                 0.8779                 1.3119
 Red. Mass:       1.6095                 1.6790                 2.2898
 IR Intens:        2.595                 14.318                  2.299
 Frequency:      1020.10                1053.01                1070.25
 Force Cnst:      1.1649                 1.2155                 1.0293
 Red. Mass:       1.9000                 1.8605                 1.5251
 IR Intens:        1.817                  5.226                  3.342
 Frequency:      1155.78                1173.61                1196.23
 Force Cnst:      1.8889                 1.1071                 1.3695
 Red. Mass:       2.4000                 1.3643                 1.6244
 IR Intens:       10.164                  7.241                 12.115
 Frequency:      1230.14                1318.18                1336.72
 Force Cnst:      1.6657                 1.4276                 2.0949
 Red. Mass:       1.8683                 1.3945                 1.9899
 IR Intens:        7.735                  8.005                 12.791
 Frequency:      1364.59                1397.29                1536.90
 Force Cnst:      2.1985                 2.6572                 6.2048
 Red. Mass:       2.0039                 2.3100                 4.4585
 IR Intens:       10.805                  3.888                 67.454
 Frequency:      3137.59                3156.08                3165.99
 Force Cnst:      6.3092                 6.3954                 6.4482
 Red. Mass:       1.0878                 1.0897                 1.0919
 IR Intens:       14.083                  7.261                 17.045
 Frequency:      3193.69                3196.91                3205.54
 Force Cnst:      6.5388                 6.5815                 6.6273
 Red. Mass:       1.0881                 1.0930                 1.0947
 IR Intens:        9.422                 11.874                  7.148

 STANDARD THERMODYNAMIC QUANTITIES AT   298.15 K  AND     1.00 ATM

   This Molecule has  1 Imaginary Frequencies
   Zero point vibrational energy:       62.813 kcal/mol

   Atom    1 Element C  Has Mass   12.00000
   Atom    2 Element C  Has Mass   12.00000
   Atom    3 Element C  Has Mass   12.00000
   Atom    4 Element C  Has Mass   12.00000
   Atom    5 Element C  Has Mass   12.00000
   Atom    6 Element N  Has Mass   14.00307
   Atom    7 Element H  Has Mass    1.00783
   Atom    8 Element H  Has Mass    1.00783
   Atom    9 Element H  Has Mass    1.00783
   Atom   10 Element H  Has Mass    1.00783
   Atom   11 Element H  Has Mass    1.00783
   Atom   12 Element C  Has Mass   12.00000
   Atom   13 Element H  Has Mass    1.00783
   Molecular Mass:    92.050050 amu
   Principal axes and moments of inertia in amu*Bohr^2:
                             1           2           3
    Eigenvalues --      348.55897   458.41556   632.43274
          X               0.22991     0.97270     0.03166
          Y               0.94152    -0.23054     0.24573
          Z              -0.24632     0.02668     0.96882
   Rotational Symmetry Number is   1
   The Molecule is an Asymmetric Top
   Translational Enthalpy:        0.889 kcal/mol
   Rotational Enthalpy:           0.889 kcal/mol
   Vibrational Enthalpy:         64.201 kcal/mol
   gas constant (RT):             0.592 kcal/mol
   Translational Entropy:        39.471  cal/mol.K
   Rotational Entropy:           26.116  cal/mol.K
   Vibrational Entropy:           6.829  cal/mol.K

   Total Enthalpy:               66.571 kcal/mol
   Total Entropy:                72.416  cal/mol.K

 Total job time:  605.14s(wall), 570.43s(cpu)
        *  Thank you very much for using Q-Chem.  Have a nice day.  *
