 Q-Chem 5.0, Q-Chem, Inc., Pleasanton, CA (2017)
 Q-Chem 5.0.2 for Intel X86 EM64T Linux

User input:
--------------------------------------------------------------
$molecule
0 2
C        1.3772927928    0.3698162948   -0.1401522876
C        0.7345151415   -0.9819211461   -0.2410781642
C       -0.7143132167   -0.9860541392   -0.5934669443
C       -1.0545037639    0.3613697780    0.1261745393
C       -0.4657318055    1.5195505193   -0.5790755395
N        0.8385188046    1.5130385872   -0.6648508329
H        2.3888016886    0.3959570566    0.2526770218
H        1.3349612127   -1.8828510860   -0.1797593883
H       -1.2774123096   -1.8843639932   -0.3420142180
H       -2.0562753312    0.4604552393    0.5385825068
H       -1.0564370496    2.3084423775   -1.0343977427
C        0.0259179073   -0.3667900974    0.9347706932
H       -0.1083483134   -0.8205776329    1.9145479911
$end

$rem
method                b3lyp
basis                 6-31+g(d,p)
unrestricted          true
symmetry              off
sym_ignore            true
incdft                false
incfock               0
scf_convergence       8
thresh                14
jobtype               freq
scf_guess             read
scf_algorithm         diis
max_scf_cycles        100
$end

--------------------------------------------------------------

             Standard Nuclear Orientation (Angstroms)
    I     Atom           X                Y                Z
 ----------------------------------------------------------------
    1      C       1.3772927928     0.3698162948    -0.1401522876
    2      C       0.7345151415    -0.9819211461    -0.2410781642
    3      C      -0.7143132167    -0.9860541392    -0.5934669443
    4      C      -1.0545037639     0.3613697780     0.1261745393
    5      C      -0.4657318055     1.5195505193    -0.5790755395
    6      N       0.8385188046     1.5130385872    -0.6648508329
    7      H       2.3888016886     0.3959570566     0.2526770218
    8      H       1.3349612127    -1.8828510860    -0.1797593883
    9      H      -1.2774123096    -1.8843639932    -0.3420142180
   10      H      -2.0562753312     0.4604552393     0.5385825068
   11      H      -1.0564370496     2.3084423775    -1.0343977427
   12      C       0.0259179073    -0.3667900974     0.9347706932
   13      H      -0.1083483134    -0.8205776329     1.9145479911
 ----------------------------------------------------------------

    2    -286.8141332062      1.72E-10 Convergence criterion met
 Total energy in the final basis set = -286.81413321

                    Orbital Energies (a.u.)
 --------------------------------------------------------------

 Alpha MOs
 -- Occupied --
-14.331 -10.252 -10.246 -10.232 -10.230 -10.228 -10.219  -0.979
 -0.887  -0.767  -0.655  -0.636  -0.613  -0.557  -0.506  -0.461
 -0.450  -0.433  -0.423  -0.380  -0.374  -0.321  -0.280  -0.257
 -0.137

 Beta MOs
 -- Occupied --
-14.331 -10.253 -10.243 -10.228 -10.227 -10.224 -10.215  -0.974
 -0.883  -0.760  -0.648  -0.627  -0.610  -0.553  -0.501  -0.458
 -0.443  -0.430  -0.412  -0.374  -0.366  -0.303  -0.273  -0.247

          Ground-State Mulliken Net Atomic Charges

     Atom                 Charge (a.u.)    Spin (a.u.)
  --------------------------------------------------------
      1 C                    -0.245101       0.248611
      2 C                    -0.065678       0.044188
      3 C                    -0.142059       0.606907
      4 C                    -0.263470      -0.043646
      5 C                     0.015229       0.245342
      6 N                    -0.199029      -0.007032
      7 H                     0.142841      -0.009210
      8 H                     0.150762      -0.007267
      9 H                     0.152777      -0.004948
     10 H                     0.139653      -0.002852
     11 H                     0.128466      -0.013451
     12 C                     0.036907      -0.071651
     13 H                     0.148703       0.015008
  --------------------------------------------------------
  Sum of atomic charges =    -0.000000

                    Cartesian Multipole Moments
 -----------------------------------------------------------------
    Charge (ESU x 10^10)
                 0.0000
    Dipole Moment (Debye)
         X      -1.0335      Y      -2.5542      Z       2.1012
       Tot       3.4651
    Quadrupole Moments (Debye-Ang)
        XX     -39.1153     XY      -4.7870     YY     -43.5530
        XZ       0.8166     YZ      -0.4556     ZZ     -44.3203

 Frequency:      -925.35                 144.27                 441.89
 Force Cnst:      2.7541                 0.0656                 0.3089
 Red. Mass:       5.4590                 5.3482                 2.6850
 IR Intens:      244.645                 32.169                  1.812
 Frequency:       462.42                 647.18                 663.11
 Force Cnst:      0.7291                 1.3644                 0.7390
 Red. Mass:       5.7874                 5.5287                 2.8524
 IR Intens:        5.645                 18.498                 36.829
 Frequency:       690.46                 759.54                 786.03
 Force Cnst:      0.7758                 0.4970                 0.5699
 Red. Mass:       2.7619                 1.4621                 1.5656
 IR Intens:        5.280                 19.754                 49.500
 Frequency:       814.37                 852.25                 871.73
 Force Cnst:      0.6521                 0.6338                 0.8865
 Red. Mass:       1.6689                 1.4811                 1.9800
 IR Intens:        4.125                  7.680                 48.651
 Frequency:       913.27                 938.56                 983.62
 Force Cnst:      0.7945                 0.8886                 1.3155
 Red. Mass:       1.6168                 1.7122                 2.3077
 IR Intens:        2.130                 14.634                  2.791
 Frequency:      1019.77                1049.95                1065.76
 Force Cnst:      1.1871                 1.2441                 1.0234
 Red. Mass:       1.9375                 1.9155                 1.5292
 IR Intens:        1.853                  4.835                  4.539
 Frequency:      1148.94                1169.28                1191.76
 Force Cnst:      1.8868                 1.0742                 1.3453
 Red. Mass:       2.4259                 1.3335                 1.6076
 IR Intens:       11.548                  7.000                 11.554
 Frequency:      1228.44                1314.55                1338.16
 Force Cnst:      1.6721                 1.4226                 2.0834
 Red. Mass:       1.8806                 1.3972                 1.9748
 IR Intens:        7.506                  8.709                 12.375
 Frequency:      1362.88                1393.52                1531.85
 Force Cnst:      2.3172                 2.5592                 6.0765
 Red. Mass:       2.1174                 2.2368                 4.3951
 IR Intens:        9.753                  4.384                 71.106
 Frequency:      3145.33                3161.82                3171.78
 Force Cnst:      6.3419                 6.4200                 6.4718
 Red. Mass:       1.0880                 1.0900                 1.0919
 IR Intens:       12.101                  7.262                 16.967
 Frequency:      3200.36                3204.58                3212.28
 Force Cnst:      6.5660                 6.6116                 6.6563
 Red. Mass:       1.0881                 1.0927                 1.0948
 IR Intens:        8.179                 12.644                  6.079

 STANDARD THERMODYNAMIC QUANTITIES AT   298.15 K  AND     1.00 ATM

   This Molecule has  1 Imaginary Frequencies
   Zero point vibrational energy:       62.729 kcal/mol

   Atom    1 Element C  Has Mass   12.00000
   Atom    2 Element C  Has Mass   12.00000
   Atom    3 Element C  Has Mass   12.00000
   Atom    4 Element C  Has Mass   12.00000
   Atom    5 Element C  Has Mass   12.00000
   Atom    6 Element N  Has Mass   14.00307
   Atom    7 Element H  Has Mass    1.00783
   Atom    8 Element H  Has Mass    1.00783
   Atom    9 Element H  Has Mass    1.00783
   Atom   10 Element H  Has Mass    1.00783
   Atom   11 Element H  Has Mass    1.00783
   Atom   12 Element C  Has Mass   12.00000
   Atom   13 Element H  Has Mass    1.00783
   Molecular Mass:    92.050050 amu
   Principal axes and moments of inertia in amu*Bohr^2:
                             1           2           3
    Eigenvalues --      348.46416   457.86425   632.58707
          X               0.22137     0.97469     0.03123
          Y               0.94359    -0.22218     0.24551
          Z              -0.24623     0.02488     0.96889
   Rotational Symmetry Number is   1
   The Molecule is an Asymmetric Top
   Translational Enthalpy:        0.889 kcal/mol
   Rotational Enthalpy:           0.889 kcal/mol
   Vibrational Enthalpy:         64.156 kcal/mol
   gas constant (RT):             0.592 kcal/mol
   Translational Entropy:        39.471  cal/mol.K
   Rotational Entropy:           26.115  cal/mol.K
   Vibrational Entropy:           7.217  cal/mol.K

   Total Enthalpy:               66.526 kcal/mol
   Total Entropy:                72.803  cal/mol.K

 Total job time:  593.14s(wall), 567.38s(cpu)
        *  Thank you very much for using Q-Chem.  Have a nice day.  *
