 Q-Chem 5.0, Q-Chem, Inc., Pleasanton, CA (2017)
 Q-Chem 5.0.2 for Intel X86 EM64T Linux

User input:
--------------------------------------------------------------
$molecule
0 2
C        1.4106984777    0.3650675165   -0.1187638633
C        0.6721363227   -0.9442023830   -0.1020296904
C       -0.7078941718   -0.8808218972   -0.6316484600
C       -1.0723250897    0.3193317990    0.2499440486
C       -0.4741918042    1.4282876815   -0.5649707941
N        0.8129544724    1.4524521530   -0.6769124173
H        2.4609089161    0.4093201713    0.1537268742
H        1.2723779471   -1.8485148633   -0.1356477593
H       -1.3703683551   -1.7180001162   -0.8054319121
H       -2.1202429785    0.4943299147    0.5141571743
H       -1.1009246690    2.0985815754   -1.1468328510
C        0.0777664072   -0.3437308751    1.1368957444
H        0.1060902825   -0.8260289187    2.1194715406
$end

$rem
method                b3lyp
basis                 6-31g(d)
unrestricted          true
symmetry              off
sym_ignore            true
incdft                false
incfock               0
scf_convergence       8
thresh                14
jobtype               freq
scf_guess             read
scf_algorithm         diis
max_scf_cycles        100
$end

--------------------------------------------------------------

             Standard Nuclear Orientation (Angstroms)
    I     Atom           X                Y                Z
 ----------------------------------------------------------------
    1      C       1.4106984777     0.3650675165    -0.1187638633
    2      C       0.6721363227    -0.9442023830    -0.1020296904
    3      C      -0.7078941718    -0.8808218972    -0.6316484600
    4      C      -1.0723250897     0.3193317990     0.2499440486
    5      C      -0.4741918042     1.4282876815    -0.5649707941
    6      N       0.8129544724     1.4524521530    -0.6769124173
    7      H       2.4609089161     0.4093201713     0.1537268742
    8      H       1.2723779471    -1.8485148633    -0.1356477593
    9      H      -1.3703683551    -1.7180001162    -0.8054319121
   10      H      -2.1202429785     0.4943299147     0.5141571743
   11      H      -1.1009246690     2.0985815754    -1.1468328510
   12      C       0.0777664072    -0.3437308751     1.1368957444
   13      H       0.1060902825    -0.8260289187     2.1194715406
 ----------------------------------------------------------------

    2    -286.7854710054      5.44E-10 Convergence criterion met
 Total energy in the final basis set = -286.78547101

                    Orbital Energies (a.u.)
 --------------------------------------------------------------

 Alpha MOs
 -- Occupied --
-14.328 -10.237 -10.227 -10.223 -10.214 -10.206 -10.192  -0.964
 -0.858  -0.752  -0.635  -0.625  -0.600  -0.537  -0.492  -0.448
 -0.447  -0.423  -0.408  -0.366  -0.349  -0.295  -0.276  -0.234
 -0.142

 Beta MOs
 -- Occupied --
-14.327 -10.237 -10.227 -10.219 -10.213 -10.206 -10.180  -0.961
 -0.849  -0.749  -0.625  -0.613  -0.596  -0.532  -0.488  -0.446
 -0.436  -0.421  -0.403  -0.359  -0.345  -0.286  -0.270  -0.215

          Ground-State Mulliken Net Atomic Charges

     Atom                 Charge (a.u.)    Spin (a.u.)
  --------------------------------------------------------
      1 C                     0.014177       0.035912
      2 C                    -0.177341      -0.030146
      3 C                    -0.110475       0.885209
      4 C                    -0.250802      -0.020242
      5 C                     0.107821      -0.020254
      6 N                    -0.338529       0.029430
      7 H                     0.159102       0.000785
      8 H                     0.145090      -0.001010
      9 H                     0.139355      -0.040207
     10 H                     0.140755       0.001096
     11 H                     0.149626       0.002059
     12 C                    -0.130996       0.156577
     13 H                     0.152215       0.000789
  --------------------------------------------------------
  Sum of atomic charges =    -0.000000

                    Cartesian Multipole Moments
 -----------------------------------------------------------------
    Charge (ESU x 10^10)
                -0.0000
    Dipole Moment (Debye)
         X      -0.8903      Y      -1.6175      Z       1.2156
       Tot       2.2106
    Quadrupole Moments (Debye-Ang)
        XX     -36.9719     XY      -3.7436     YY     -41.5974
        XZ       1.4237     YZ      -0.4851     ZZ     -42.5541

 Frequency:      -466.06                -229.99                 357.91
 Force Cnst:      0.3901                 0.0486                 0.1905
 Red. Mass:       3.0480                 1.5609                 2.5244
 IR Intens:        9.766                 33.638                  7.184
 Frequency:       475.01                 558.64                 629.53
 Force Cnst:      0.6376                 0.5674                 0.4113
 Red. Mass:       4.7965                 3.0856                 1.7616
 IR Intens:       14.079                  2.144                 17.495
 Frequency:       695.54                 709.94                 733.81
 Force Cnst:      1.2058                 1.3646                 0.9967
 Red. Mass:       4.2304                 4.5953                 3.1416
 IR Intens:        5.426                  4.267                  7.892
 Frequency:       811.30                 851.46                 876.14
 Force Cnst:      0.4829                 1.1716                 0.6966
 Red. Mass:       1.2453                 2.7429                 1.5402
 IR Intens:       14.767                  4.629                 17.412
 Frequency:       912.18                 936.37                 987.16
 Force Cnst:      1.0934                 1.0861                 1.2884
 Red. Mass:       2.2304                 2.1025                 2.2440
 IR Intens:       30.008                 23.898                  0.822
 Frequency:      1008.68                1067.08                1109.93
 Force Cnst:      0.8948                 1.4169                 1.5928
 Red. Mass:       1.4927                 2.1120                 2.1944
 IR Intens:        7.390                  2.359                  1.452
 Frequency:      1147.75                1180.79                1190.58
 Force Cnst:      1.6833                 1.0852                 1.4383
 Red. Mass:       2.1688                 1.3211                 1.7222
 IR Intens:        8.969                  8.634                 11.804
 Frequency:      1244.65                1299.27                1312.00
 Force Cnst:      1.3786                 1.3372                 2.3159
 Red. Mass:       1.5104                 1.3445                 2.2835
 IR Intens:        9.137                  9.042                 10.397
 Frequency:      1354.97                1420.12                1615.55
 Force Cnst:      1.6269                 2.6480                10.9705
 Red. Mass:       1.5040                 2.2286                 7.1340
 IR Intens:       10.284                  6.818                 21.889
 Frequency:      3108.00                3124.49                3187.23
 Force Cnst:      6.1961                 6.2857                 6.5276
 Red. Mass:       1.0887                 1.0928                 1.0906
 IR Intens:       20.207                  5.816                 22.580
 Frequency:      3207.64                3219.84                3253.12
 Force Cnst:      6.6197                 6.6732                 6.8181
 Red. Mass:       1.0920                 1.0925                 1.0935
 IR Intens:       20.176                 10.154                  9.010

 STANDARD THERMODYNAMIC QUANTITIES AT   298.15 K  AND     1.00 ATM

   This Molecule has  2 Imaginary Frequencies
   Zero point vibrational energy:       62.310 kcal/mol

   Atom    1 Element C  Has Mass   12.00000
   Atom    2 Element C  Has Mass   12.00000
   Atom    3 Element C  Has Mass   12.00000
   Atom    4 Element C  Has Mass   12.00000
   Atom    5 Element C  Has Mass   12.00000
   Atom    6 Element N  Has Mass   14.00307
   Atom    7 Element H  Has Mass    1.00783
   Atom    8 Element H  Has Mass    1.00783
   Atom    9 Element H  Has Mass    1.00783
   Atom   10 Element H  Has Mass    1.00783
   Atom   11 Element H  Has Mass    1.00783
   Atom   12 Element C  Has Mass   12.00000
   Atom   13 Element H  Has Mass    1.00783
   Molecular Mass:    92.050050 amu
   Principal axes and moments of inertia in amu*Bohr^2:
                             1           2           3
    Eigenvalues --      371.58287   449.22676   605.13435
          X               0.27968     0.96001    -0.01245
          Y               0.90427    -0.25904     0.33940
          Z              -0.32260     0.10618     0.94056
   Rotational Symmetry Number is   1
   The Molecule is an Asymmetric Top
   Translational Enthalpy:        0.889 kcal/mol
   Rotational Enthalpy:           0.889 kcal/mol
   Vibrational Enthalpy:         63.429 kcal/mol
   gas constant (RT):             0.592 kcal/mol
   Translational Entropy:        39.471  cal/mol.K
   Rotational Entropy:           26.116  cal/mol.K
   Vibrational Entropy:           5.024  cal/mol.K

   Total Enthalpy:               65.799 kcal/mol
   Total Entropy:                70.611  cal/mol.K

 Total job time:  284.96s(wall), 270.09s(cpu)
        *  Thank you very much for using Q-Chem.  Have a nice day.  *
