 Q-Chem 5.0, Q-Chem, Inc., Pleasanton, CA (2017)
 Q-Chem 5.0.2 for Intel X86 EM64T Linux

User input:
--------------------------------------------------------------
$molecule
0 2
C        1.4106984777    0.3650675165   -0.1187638633
C        0.6721363227   -0.9442023830   -0.1020296904
C       -0.7078941718   -0.8808218972   -0.6316484600
C       -1.0723250897    0.3193317990    0.2499440486
C       -0.4741918042    1.4282876815   -0.5649707941
N        0.8129544724    1.4524521530   -0.6769124173
H        2.4609089161    0.4093201713    0.1537268742
H        1.2723779471   -1.8485148633   -0.1356477593
H       -1.3703683551   -1.7180001162   -0.8054319121
H       -2.1202429785    0.4943299147    0.5141571743
H       -1.1009246690    2.0985815754   -1.1468328510
C        0.0777664072   -0.3437308751    1.1368957444
H        0.1060902825   -0.8260289187    2.1194715406
$end

$rem
method                b3lyp
basis                 6-31g(d)
unrestricted          true
symmetry              off
sym_ignore            true
incdft                false
incfock               0
scf_convergence       6
thresh                14
jobtype               sp
scf_guess             read
scf_algorithm         diis
max_scf_cycles        100
stability_analysis    true
max_cis_cycles        100
cis_n_roots           4
$end

--------------------------------------------------------------

             Standard Nuclear Orientation (Angstroms)
    I     Atom           X                Y                Z
 ----------------------------------------------------------------
    1      C       1.4106984777     0.3650675165    -0.1187638633
    2      C       0.6721363227    -0.9442023830    -0.1020296904
    3      C      -0.7078941718    -0.8808218972    -0.6316484600
    4      C      -1.0723250897     0.3193317990     0.2499440486
    5      C      -0.4741918042     1.4282876815    -0.5649707941
    6      N       0.8129544724     1.4524521530    -0.6769124173
    7      H       2.4609089161     0.4093201713     0.1537268742
    8      H       1.2723779471    -1.8485148633    -0.1356477593
    9      H      -1.3703683551    -1.7180001162    -0.8054319121
   10      H      -2.1202429785     0.4943299147     0.5141571743
   11      H      -1.1009246690     2.0985815754    -1.1468328510
   12      C       0.0777664072    -0.3437308751     1.1368957444
   13      H       0.1060902825    -0.8260289187     2.1194715406
 ----------------------------------------------------------------

    2    -286.7854710053      1.30E-09 Convergence criterion met
 Total energy in the final basis set = -286.78547101

         TDDFT/TDA Excitation Energies
 ---------------------------------------------------

 Excited state   1: excitation energy (eV) =    1.5703
 Total energy for state  1:                  -286.72776193 au
    <S**2>     :  1.0570
    Trans. Mom.: -0.0665 X  -0.1317 Y   0.1796 Z
    Strength   :     0.0020793560
    S(  1) --> V(  1) amplitude =  0.9602 alpha
    D( 24) --> S(  1) amplitude = -0.2457 beta

 Excited state   2: excitation energy (eV) =    3.2159
 Total energy for state  2:                  -286.66728722 au
    <S**2>     :  2.3529
    Trans. Mom.:  0.0290 X  -0.1125 Y   0.1147 Z
    Strength   :     0.0021013083
    D( 24) --> V(  1) amplitude =  0.6187 alpha
    S(  1) --> V(  1) amplitude =  0.2172 alpha
    S(  1) --> V(  2) amplitude =  0.2604 alpha
    D( 24) --> S(  1) amplitude =  0.6791 beta

 Excited state   3: excitation energy (eV) =    3.8166
 Total energy for state  3:                  -286.64521498 au
    <S**2>     :  1.2008
    Trans. Mom.:  0.0368 X  -0.0744 Y  -0.1437 Z
    Strength   :     0.0025742847
    D( 24) --> V(  1) amplitude = -0.2691 alpha
    S(  1) --> V(  2) amplitude =  0.8103 alpha
    D( 24) --> V(  1) amplitude = -0.4212 beta
    D( 24) --> V(  2) amplitude = -0.1593 beta

 Excited state   4: excitation energy (eV) =    4.2703
 Total energy for state  4:                  -286.62854202 au
    <S**2>     :  0.8283
    Trans. Mom.:  0.4164 X   0.3186 Y   0.2406 Z
    Strength   :     0.0348186095
    S(  1) --> V(  2) amplitude =  0.3959 alpha
    D( 22) --> S(  1) amplitude =  0.2077 beta
    D( 24) --> V(  1) amplitude =  0.8706 beta

 ---------------------------------------------------

                    Orbital Energies (a.u.)
 --------------------------------------------------------------

 Alpha MOs
 -- Occupied --
-14.328 -10.237 -10.227 -10.223 -10.214 -10.206 -10.192  -0.964
 -0.858  -0.752  -0.635  -0.625  -0.600  -0.537  -0.492  -0.448
 -0.447  -0.423  -0.408  -0.366  -0.349  -0.295  -0.276  -0.234
 -0.142

 Beta MOs
 -- Occupied --
-14.327 -10.237 -10.227 -10.219 -10.213 -10.206 -10.180  -0.961
 -0.849  -0.749  -0.625  -0.613  -0.596  -0.532  -0.488  -0.446
 -0.436  -0.421  -0.403  -0.359  -0.345  -0.286  -0.270  -0.215

          Ground-State Mulliken Net Atomic Charges

     Atom                 Charge (a.u.)    Spin (a.u.)
  --------------------------------------------------------
      1 C                     0.014177       0.035912
      2 C                    -0.177341      -0.030146
      3 C                    -0.110475       0.885209
      4 C                    -0.250802      -0.020242
      5 C                     0.107821      -0.020255
      6 N                    -0.338529       0.029431
      7 H                     0.159102       0.000785
      8 H                     0.145090      -0.001010
      9 H                     0.139355      -0.040207
     10 H                     0.140755       0.001096
     11 H                     0.149626       0.002059
     12 C                    -0.130996       0.156577
     13 H                     0.152215       0.000789
  --------------------------------------------------------
  Sum of atomic charges =    -0.000000

                    Cartesian Multipole Moments
 -----------------------------------------------------------------
    Charge (ESU x 10^10)
                 0.0000
    Dipole Moment (Debye)
         X      -0.8903      Y      -1.6175      Z       1.2156
       Tot       2.2106
    Quadrupole Moments (Debye-Ang)
        XX     -36.9719     XY      -3.7436     YY     -41.5974
        XZ       1.4237     YZ      -0.4851     ZZ     -42.5541

 Total job time:  114.09s(wall), 87.13s(cpu)
        *  Thank you very much for using Q-Chem.  Have a nice day.  *
