 Q-Chem 5.0, Q-Chem, Inc., Pleasanton, CA (2017)
 Q-Chem 5.0.2 for Intel X86 EM64T Linux

User input:
--------------------------------------------------------------
$molecule
0 2
C        1.1257872283    0.1915103642    0.4753344904
C        0.8530562582   -0.9771834436   -0.4844585579
C       -0.4708821211   -0.9917798802   -0.7112761441
C       -1.0733753324    0.1689504635    0.1058247809
C       -0.4268768735    1.4516272469   -0.4559746898
N        0.8343480124    1.4888641751   -0.2636226176
H        2.1013688013    0.2175611497    0.9584965789
H        1.6121067179   -1.6257873646   -0.9077038328
H       -1.0351172358   -1.6489404257   -1.3639214750
H       -2.1544426050    0.1672496931    0.2459404249
H       -0.9623959612    2.2384269214   -0.9846100443
C       -0.1373892975    0.0439136282    1.3126277610
H       -0.2661875919   -0.7244125280    2.0733433255
$end

$rem
method                b3lyp
basis                 6-31g(d)
unrestricted          true
symmetry              off
sym_ignore            true
incdft                false
incfock               0
scf_convergence       8
thresh                14
jobtype               opt
scf_guess             core
scf_guess_mix         5
scf_algorithm         diis
max_scf_cycles        100
geom_opt_max_cycles   300
$end

--------------------------------------------------------------

   21    -286.8516580738      2.53E-09 Convergence criterion met
 Total energy in the final basis set = -286.85165807
   16    -286.8516594834      3.89E-09 Convergence criterion met
 Total energy in the final basis set = -286.85165948
   16    -286.8516605611      4.03E-09 Convergence criterion met
 Total energy in the final basis set = -286.85166056

             Standard Nuclear Orientation (Angstroms)
    I     Atom           X                Y                Z
 ----------------------------------------------------------------
    1      C       1.1257323313     0.1922337865     0.4746690282
    2      C       0.8532525452    -0.9767880533    -0.4848430126
    3      C      -0.4702377696    -0.9912679892    -0.7120302100
    4      C      -1.0731964535     0.1687161117     0.1057264456
    5      C      -0.4272635210     1.4517249684    -0.4558123407
    6      N       0.8339223034     1.4888177379    -0.2651137969
    7      H       2.1011704198     0.2168050138     0.9582537018
    8      H       1.6120288300    -1.6270792997    -0.9059998495
    9      H      -1.0344162253    -1.6493470802    -1.3639010419
   10      H      -2.1541597964     0.1675314014     0.2463372013
   11      H      -0.9627146293     2.2393822215    -0.9832903073
   12      C      -0.1377420172     0.0440018324     1.3128677990
   13      H      -0.2663760177    -0.7247306512     2.0731363830
 ----------------------------------------------------------------

   16    -286.8516608971      4.00E-09 Convergence criterion met
 Total energy in the final basis set = -286.85166090
 Final energy is   -286.851660897118
 **  OPTIMIZATION CONVERGED  **

                    Orbital Energies (a.u.)
 --------------------------------------------------------------

 Alpha MOs
 -- Occupied --
-14.322 -10.224 -10.220 -10.210 -10.204 -10.201 -10.197  -0.952
 -0.821  -0.726  -0.705  -0.579  -0.573  -0.531  -0.512  -0.472
 -0.418  -0.410  -0.381  -0.373  -0.348  -0.294  -0.271  -0.258
 -0.196

 Beta MOs
 -- Occupied --
-14.321 -10.224 -10.221 -10.210 -10.200 -10.196 -10.190  -0.949
 -0.815  -0.725  -0.690  -0.577  -0.561  -0.527  -0.509  -0.463
 -0.414  -0.406  -0.379  -0.369  -0.342  -0.287  -0.261  -0.255

          Ground-State Mulliken Net Atomic Charges

     Atom                 Charge (a.u.)    Spin (a.u.)
  --------------------------------------------------------
      1 C                    -0.094524      -0.045009
      2 C                    -0.088038       0.040282
      3 C                    -0.095735       0.079373
      4 C                    -0.246153      -0.043933
      5 C                     0.092239      -0.008776
      6 N                    -0.325142       0.021911
      7 H                     0.139802       0.003023
      8 H                     0.146096       0.000886
      9 H                     0.145540       0.000347
     10 H                     0.133942       0.002862
     11 H                     0.149665      -0.000175
     12 C                    -0.096527       0.975758
     13 H                     0.138834      -0.026549
  --------------------------------------------------------
  Sum of atomic charges =    -0.000000

                    Cartesian Multipole Moments
 -----------------------------------------------------------------
    Charge (ESU x 10^10)
                -0.0000
    Dipole Moment (Debye)
         X      -1.4499      Y      -1.8760      Z      -0.1335
       Tot       2.3748
    Quadrupole Moments (Debye-Ang)
        XX     -38.2733     XY      -4.0447     YY     -42.6507
        XZ       1.9395     YZ       0.1930     ZZ     -40.5567

 Total job time:  53.95s(wall), 202.39s(cpu)
        *  Thank you very much for using Q-Chem.  Have a nice day.  *
