 Q-Chem 5.0, Q-Chem, Inc., Pleasanton, CA (2017)
 Q-Chem 5.0.2 for Intel X86 EM64T Linux

User input:
--------------------------------------------------------------
$molecule
0 2
C        1.1893926159    0.3430764776    0.3777913106
C        0.6800432118   -1.0758653121   -0.1480580577
C       -0.5789747398   -0.9376362397   -0.8669185161
C       -1.0854324972    0.1294817327    0.1011401553
C       -0.5151694572    1.4384556318   -0.4320088713
N        0.7601117139    1.5284140858   -0.3209985905
H        2.1945874409    0.3386340181    0.7868700052
H        1.3975352713   -1.8895521398   -0.1863027082
H       -0.8645810205   -1.1589580651   -1.8926131035
H       -2.1340940856    0.1182411963    0.4063361366
H       -1.0953308714    2.1771220573   -0.9829099466
C        0.0639774128   -0.3473223776    1.0609130531
H       -0.0120649950   -0.6640910652    2.0967591331
$end

$rem
method                b3lyp
basis                 6-31g(d)
unrestricted          true
symmetry              off
sym_ignore            true
incdft                false
incfock               0
scf_convergence       8
thresh                14
jobtype               opt
scf_guess             core
scf_guess_mix         5
scf_algorithm         diis
max_scf_cycles        100
geom_opt_max_cycles   300
$end

--------------------------------------------------------------

   20    -286.8383242969      8.07E-09 Convergence criterion met
 Total energy in the final basis set = -286.83832430

             Standard Nuclear Orientation (Angstroms)
    I     Atom           X                Y                Z
 ----------------------------------------------------------------
    1      C       1.1893717253     0.3429683502     0.3776237553
    2      C       0.6801293704    -1.0757227126    -0.1480695422
    3      C      -0.5790030744    -0.9377586450    -0.8669931397
    4      C      -1.0854326285     0.1292982268     0.1010221989
    5      C      -0.5151217370     1.4382335867    -0.4322212085
    6      N       0.7602950954     1.5281228409    -0.3216395131
    7      H       2.1943357315     0.3386675018     0.7872184282
    8      H       1.3973493991    -1.8896592610    -0.1860928727
    9      H      -0.8643564917    -1.1587859789    -1.8928220475
   10      H      -2.1340046667     0.1181233146     0.4064295023
   11      H      -1.0955357881     2.1774537189    -0.9820994394
   12      C       0.0639465344    -0.3472336994     1.0608435761
   13      H      -0.0119734699    -0.6637072429     2.0968003022
 ----------------------------------------------------------------

   15    -286.8383245641      5.44E-09 Convergence criterion met
 Total energy in the final basis set = -286.83832456
 Final energy is   -286.838324564114
 **  OPTIMIZATION CONVERGED  **

                    Orbital Energies (a.u.)
 --------------------------------------------------------------

 Alpha MOs
 -- Occupied --
-14.320 -10.224 -10.220 -10.210 -10.209 -10.208 -10.206  -0.968
 -0.856  -0.749  -0.664  -0.606  -0.571  -0.535  -0.516  -0.467
 -0.439  -0.405  -0.400  -0.356  -0.336  -0.298  -0.273  -0.256
 -0.182

 Beta MOs
 -- Occupied --
-14.319 -10.222 -10.219 -10.211 -10.209 -10.207 -10.193  -0.964
 -0.850  -0.741  -0.652  -0.601  -0.567  -0.528  -0.511  -0.461
 -0.434  -0.403  -0.394  -0.348  -0.332  -0.291  -0.262  -0.250

          Ground-State Mulliken Net Atomic Charges

     Atom                 Charge (a.u.)    Spin (a.u.)
  --------------------------------------------------------
      1 C                    -0.019115       0.096980
      2 C                    -0.163358      -0.095890
      3 C                    -0.066191       0.888421
      4 C                    -0.258157      -0.065700
      5 C                     0.088676       0.047013
      6 N                    -0.342273       0.039319
      7 H                     0.151432       0.002843
      8 H                     0.147198       0.005291
      9 H                     0.136262      -0.019350
     10 H                     0.142840       0.022693
     11 H                     0.143033       0.001383
     12 C                    -0.108407       0.077774
     13 H                     0.148061      -0.000779
  --------------------------------------------------------
  Sum of atomic charges =    -0.000000

                    Cartesian Multipole Moments
 -----------------------------------------------------------------
    Charge (ESU x 10^10)
                 0.0000
    Dipole Moment (Debye)
         X      -1.1310      Y      -1.5426      Z       0.7366
       Tot       2.0497
    Quadrupole Moments (Debye-Ang)
        XX     -38.5186     XY      -4.6532     YY     -43.7972
        XZ       2.2512     YZ       0.2941     ZZ     -39.0034

 Total job time:  27.22s(wall), 102.16s(cpu)
        *  Thank you very much for using Q-Chem.  Have a nice day.  *
