 Q-Chem 5.0, Q-Chem, Inc., Pleasanton, CA (2017)
 Q-Chem 5.0.2 for Intel X86 EM64T Linux

User input:
--------------------------------------------------------------
$molecule
0 2
C        1.1657286851    0.2823325485    0.4109159667
C        0.7820168291   -0.9898385484   -0.3434097259
C       -0.5225797753   -0.9189052605   -0.8518903628
C       -1.0786859918    0.1537348898    0.0824779620
C       -0.4735800285    1.4676314806   -0.4185685095
N        0.7994688986    1.5316783232   -0.2711771561
H        2.1478487845    0.2795429957    0.8771361095
H        1.5049176420   -1.7888230565   -0.4900001446
H       -1.0054035143   -1.4996246249   -1.6262397874
H       -2.1442177820    0.1344459790    0.3128756274
H       -1.0282359967    2.2313811441   -0.9614032227
C       -0.0262121504   -0.2091908390    1.1538323739
H       -0.1302629731   -0.6955169421    2.1135303963
$end

$rem
method                b3lyp
basis                 6-31g(d)
unrestricted          true
symmetry              off
sym_ignore            true
incdft                false
incfock               0
scf_convergence       6
thresh                14
jobtype               sp
scf_guess             read
scf_algorithm         diis
max_scf_cycles        100
stability_analysis    true
max_cis_cycles        100
cis_n_roots           4
$end

--------------------------------------------------------------

             Standard Nuclear Orientation (Angstroms)
    I     Atom           X                Y                Z
 ----------------------------------------------------------------
    1      C       1.1657286851     0.2823325485     0.4109159667
    2      C       0.7820168291    -0.9898385484    -0.3434097259
    3      C      -0.5225797753    -0.9189052605    -0.8518903628
    4      C      -1.0786859918     0.1537348898     0.0824779620
    5      C      -0.4735800285     1.4676314806    -0.4185685095
    6      N       0.7994688986     1.5316783232    -0.2711771561
    7      H       2.1478487845     0.2795429957     0.8771361095
    8      H       1.5049176420    -1.7888230565    -0.4900001446
    9      H      -1.0054035143    -1.4996246249    -1.6262397874
   10      H      -2.1442177820     0.1344459790     0.3128756274
   11      H      -1.0282359967     2.2313811441    -0.9614032227
   12      C      -0.0262121504    -0.2091908390     1.1538323739
   13      H      -0.1302629731    -0.6955169421     2.1135303963
 ----------------------------------------------------------------

    2    -286.8244737405      1.36E-09 Convergence criterion met
 Total energy in the final basis set = -286.82447374

         TDDFT/TDA Excitation Energies
 ---------------------------------------------------

 Excited state   1: excitation energy (eV) =    2.7829
 Total energy for state  1:                  -286.72220518 au
    <S**2>     :  0.7827
    Trans. Mom.: -0.0425 X   0.1581 Y  -0.3639 Z
    Strength   :     0.0108557111
    S(  1) --> V(  1) amplitude =  0.8146 alpha
    S(  1) --> V(  2) amplitude = -0.5038 alpha
    D( 24) --> S(  1) amplitude =  0.1946 beta

 Excited state   2: excitation energy (eV) =    3.0707
 Total energy for state  2:                  -286.71162852 au
    <S**2>     :  0.8071
    Trans. Mom.:  0.0141 X   0.4338 Y   0.0752 Z
    Strength   :     0.0145945914
    S(  1) --> V(  1) amplitude =  0.5477 alpha
    S(  1) --> V(  2) amplitude =  0.7908 alpha
    D( 24) --> S(  1) amplitude = -0.2220 beta

 Excited state   3: excitation energy (eV) =    4.4655
 Total energy for state  3:                  -286.66036979 au
    <S**2>     :  1.8390
    Trans. Mom.: -0.0835 X  -0.1625 Y   0.0404 Z
    Strength   :     0.0038306719
    D( 22) --> V(  1) amplitude =  0.1831 alpha
    D( 23) --> V(  1) amplitude = -0.3501 alpha
    D( 24) --> V(  1) amplitude =  0.1917 alpha
    D( 22) --> S(  1) amplitude =  0.2842 beta
    D( 22) --> V(  1) amplitude =  0.1662 beta
    D( 23) --> S(  1) amplitude =  0.6714 beta
    D( 23) --> V(  1) amplitude =  0.2418 beta
    D( 24) --> S(  1) amplitude = -0.2823 beta

 Excited state   4: excitation energy (eV) =    4.5337
 Total energy for state  4:                  -286.65786368 au
    <S**2>     :  1.5891
    Trans. Mom.:  0.0737 X   0.1857 Y   0.2268 Z
    Strength   :     0.0101506022
    D( 22) --> V(  1) amplitude =  0.1799 alpha
    D( 23) --> V(  1) amplitude = -0.2007 alpha
    D( 24) --> V(  1) amplitude = -0.1837 alpha
    S(  1) --> V(  2) amplitude =  0.1686 alpha
    D( 22) --> S(  1) amplitude =  0.4270 beta
    D( 22) --> V(  1) amplitude =  0.2168 beta
    D( 24) --> S(  1) amplitude =  0.7188 beta
    D( 24) --> V(  1) amplitude =  0.2419 beta

 ---------------------------------------------------

                    Orbital Energies (a.u.)
 --------------------------------------------------------------

 Alpha MOs
 -- Occupied --
-14.314 -10.224 -10.218 -10.216 -10.212 -10.209 -10.193  -0.959
 -0.836  -0.739  -0.685  -0.590  -0.575  -0.538  -0.513  -0.461
 -0.433  -0.414  -0.398  -0.367  -0.345  -0.284  -0.271  -0.264
 -0.145

 Beta MOs
 -- Occupied --
-14.313 -10.224 -10.219 -10.218 -10.210 -10.204 -10.184  -0.955
 -0.828  -0.735  -0.673  -0.586  -0.566  -0.531  -0.510  -0.453
 -0.429  -0.408  -0.396  -0.362  -0.340  -0.274  -0.261  -0.251

          Ground-State Mulliken Net Atomic Charges

     Atom                 Charge (a.u.)    Spin (a.u.)
  --------------------------------------------------------
      1 C                    -0.028418       0.004203
      2 C                    -0.132041      -0.216264
      3 C                    -0.081639       0.664320
      4 C                    -0.258530      -0.069107
      5 C                     0.091848       0.008543
      6 N                    -0.338936       0.064257
      7 H                     0.146695       0.004278
      8 H                     0.147959       0.011856
      9 H                     0.141953      -0.026926
     10 H                     0.137559       0.010532
     11 H                     0.143630       0.001583
     12 C                    -0.128540       0.570546
     13 H                     0.158459      -0.027821
  --------------------------------------------------------
  Sum of atomic charges =    -0.000000

                    Cartesian Multipole Moments
 -----------------------------------------------------------------
    Charge (ESU x 10^10)
                 0.0000
    Dipole Moment (Debye)
         X      -1.1853      Y      -1.9514      Z       0.6846
       Tot       2.3836
    Quadrupole Moments (Debye-Ang)
        XX     -38.2252     XY      -4.5740     YY     -43.2173
        XZ       2.0715     YZ       0.3891     ZZ     -39.5321

 Total job time:  85.62s(wall), 84.11s(cpu)
        *  Thank you very much for using Q-Chem.  Have a nice day.  *
