 Q-Chem 5.0, Q-Chem, Inc., Pleasanton, CA (2017)
 Q-Chem 5.0.2 for Intel X86 EM64T Linux

User input:
--------------------------------------------------------------
$molecule
0 2
C        1.1602549289    0.2751435525    0.4167785003
C        0.7926268258   -0.9790313375   -0.3684205276
C       -0.5283024739   -0.9545775097   -0.8043020789
C       -1.0821327649    0.1552569829    0.0948258623
C       -0.4633833162    1.4620000832   -0.4310785334
N        0.8068638893    1.5207058157   -0.2749970422
H        2.1428852989    0.2758897076    0.8821012617
H        1.5220346599   -1.7694709435   -0.5320773688
H       -0.9978626858   -1.4940317235   -1.6182215931
H       -2.1497157447    0.1461487722    0.3167975485
H       -1.0189322657    2.2248608254   -0.9733156393
C       -0.0459351059   -0.1523342175    1.1867751672
H       -0.1475986186   -0.7317119182    2.0932139702
$end

$rem
method                b3lyp
basis                 6-31g(d)
unrestricted          true
symmetry              off
sym_ignore            true
incdft                false
incfock               0
scf_convergence       8
thresh                14
jobtype               ts
scf_guess             read
scf_algorithm         diis
max_scf_cycles        100
geom_opt_max_cycles   500
geom_opt_dmax         100
geom_opt_tol_gradient 10
geom_opt_hessian      read
$end

--------------------------------------------------------------

    2    -286.8262866351      2.66E-10 Convergence criterion met
 Total energy in the final basis set = -286.82628664
   14    -286.8256046789      7.80E-09 Convergence criterion met
 Total energy in the final basis set = -286.82560468
   13    -286.8251522690      9.90E-09 Convergence criterion met
 Total energy in the final basis set = -286.82515227
   13    -286.8248345437      5.99E-09 Convergence criterion met
 Total energy in the final basis set = -286.82483454
   13    -286.8246255997      3.31E-09 Convergence criterion met
 Total energy in the final basis set = -286.82462560
   13    -286.8245099160      3.38E-09 Convergence criterion met
 Total energy in the final basis set = -286.82450992
   13    -286.8244712557      4.49E-09 Convergence criterion met
 Total energy in the final basis set = -286.82447126
   13    -286.8244731040      3.30E-09 Convergence criterion met
 Total energy in the final basis set = -286.82447310
   10    -286.8244737228      7.71E-09 Convergence criterion met
 Total energy in the final basis set = -286.82447372

             Standard Nuclear Orientation (Angstroms)
    I     Atom           X                Y                Z
 ----------------------------------------------------------------
    1      C       1.1657286851     0.2823325485     0.4109159667
    2      C       0.7820168291    -0.9898385484    -0.3434097259
    3      C      -0.5225797753    -0.9189052605    -0.8518903628
    4      C      -1.0786859918     0.1537348898     0.0824779620
    5      C      -0.4735800285     1.4676314806    -0.4185685095
    6      N       0.7994688986     1.5316783232    -0.2711771561
    7      H       2.1478487845     0.2795429957     0.8771361095
    8      H       1.5049176420    -1.7888230565    -0.4900001446
    9      H      -1.0054035143    -1.4996246249    -1.6262397874
   10      H      -2.1442177820     0.1344459790     0.3128756274
   11      H      -1.0282359967     2.2313811441    -0.9614032227
   12      C      -0.0262121504    -0.2091908390     1.1538323739
   13      H      -0.1302629731    -0.6955169421     2.1135303963
 ----------------------------------------------------------------

    8    -286.8244737405      9.75E-09 Convergence criterion met
 Total energy in the final basis set = -286.82447374
 Final energy is   -286.824473740519
 **  OPTIMIZATION CONVERGED  **

                    Orbital Energies (a.u.)
 --------------------------------------------------------------

 Alpha MOs
 -- Occupied --
-14.314 -10.224 -10.218 -10.216 -10.212 -10.209 -10.193  -0.959
 -0.836  -0.739  -0.685  -0.590  -0.575  -0.538  -0.513  -0.461
 -0.433  -0.414  -0.398  -0.367  -0.345  -0.284  -0.271  -0.264
 -0.145

 Beta MOs
 -- Occupied --
-14.313 -10.224 -10.219 -10.218 -10.210 -10.204 -10.184  -0.955
 -0.828  -0.735  -0.673  -0.586  -0.566  -0.531  -0.510  -0.453
 -0.429  -0.408  -0.396  -0.362  -0.340  -0.274  -0.261  -0.251

          Ground-State Mulliken Net Atomic Charges

     Atom                 Charge (a.u.)    Spin (a.u.)
  --------------------------------------------------------
      1 C                    -0.028417       0.004203
      2 C                    -0.132041      -0.216263
      3 C                    -0.081639       0.664321
      4 C                    -0.258530      -0.069106
      5 C                     0.091847       0.008542
      6 N                    -0.338936       0.064258
      7 H                     0.146695       0.004278
      8 H                     0.147959       0.011856
      9 H                     0.141953      -0.026927
     10 H                     0.137559       0.010532
     11 H                     0.143630       0.001583
     12 C                    -0.128540       0.570543
     13 H                     0.158459      -0.027821
  --------------------------------------------------------
  Sum of atomic charges =    -0.000000

                    Cartesian Multipole Moments
 -----------------------------------------------------------------
    Charge (ESU x 10^10)
                -0.0000
    Dipole Moment (Debye)
         X      -1.1853      Y      -1.9514      Z       0.6846
       Tot       2.3836
    Quadrupole Moments (Debye-Ang)
        XX     -38.2252     XY      -4.5740     YY     -43.2173
        XZ       2.0715     YZ       0.3891     ZZ     -39.5321

 Total job time:  98.83s(wall), 359.22s(cpu)
        *  Thank you very much for using Q-Chem.  Have a nice day.  *
