 Q-Chem 5.0, Q-Chem, Inc., Pleasanton, CA (2017)
 Q-Chem 5.0.2 for Intel X86 EM64T Linux

User input:
--------------------------------------------------------------
$molecule
0 2
C        1.1602549289    0.2751435525    0.4167785003
C        0.7926268258   -0.9790313375   -0.3684205276
C       -0.5283024739   -0.9545775097   -0.8043020789
C       -1.0821327649    0.1552569829    0.0948258623
C       -0.4633833162    1.4620000832   -0.4310785334
N        0.8068638893    1.5207058157   -0.2749970422
H        2.1428852989    0.2758897076    0.8821012617
H        1.5220346599   -1.7694709435   -0.5320773688
H       -0.9978626858   -1.4940317235   -1.6182215931
H       -2.1497157447    0.1461487722    0.3167975485
H       -1.0189322657    2.2248608254   -0.9733156393
C       -0.0459351059   -0.1523342175    1.1867751672
H       -0.1475986186   -0.7317119182    2.0932139702
$end

$rem
method                b3lyp
basis                 6-31g(d)
unrestricted          true
symmetry              off
sym_ignore            true
incdft                false
incfock               0
scf_convergence       6
thresh                14
jobtype               sp
scf_guess             read
scf_algorithm         diis
max_scf_cycles        100
stability_analysis    true
max_cis_cycles        100
cis_n_roots           4
$end

--------------------------------------------------------------

             Standard Nuclear Orientation (Angstroms)
    I     Atom           X                Y                Z
 ----------------------------------------------------------------
    1      C       1.1602549289     0.2751435525     0.4167785003
    2      C       0.7926268258    -0.9790313375    -0.3684205276
    3      C      -0.5283024739    -0.9545775097    -0.8043020789
    4      C      -1.0821327649     0.1552569829     0.0948258623
    5      C      -0.4633833162     1.4620000832    -0.4310785334
    6      N       0.8068638893     1.5207058157    -0.2749970422
    7      H       2.1428852989     0.2758897076     0.8821012617
    8      H       1.5220346599    -1.7694709435    -0.5320773688
    9      H      -0.9978626858    -1.4940317235    -1.6182215931
   10      H      -2.1497157447     0.1461487722     0.3167975485
   11      H      -1.0189322657     2.2248608254    -0.9733156393
   12      C      -0.0459351059    -0.1523342175     1.1867751672
   13      H      -0.1475986186    -0.7317119182     2.0932139702
 ----------------------------------------------------------------

    2    -286.8262866350      1.48E-09 Convergence criterion met
 Total energy in the final basis set = -286.82628664

         TDDFT/TDA Excitation Energies
 ---------------------------------------------------

 Excited state   1: excitation energy (eV) =    2.5205
 Total energy for state  1:                  -286.73366118 au
    <S**2>     :  0.7848
    Trans. Mom.:  0.0799 X  -0.1072 Y   0.3914 Z
    Strength   :     0.0105658801
    S(  1) --> V(  1) amplitude =  0.9413 alpha
    S(  1) --> V(  2) amplitude =  0.1898 alpha
    D( 24) --> S(  1) amplitude =  0.2247 beta

 Excited state   2: excitation energy (eV) =    3.2029
 Total energy for state  2:                  -286.70858189 au
    <S**2>     :  0.8484
    Trans. Mom.:  0.0235 X   0.3907 Y   0.0220 Z
    Strength   :     0.0120563176
    S(  1) --> V(  1) amplitude = -0.2395 alpha
    S(  1) --> V(  2) amplitude =  0.9314 alpha
    D( 24) --> S(  1) amplitude =  0.2055 beta

 Excited state   3: excitation energy (eV) =    4.4710
 Total energy for state  3:                  -286.66198060 au
    <S**2>     :  2.0754
    Trans. Mom.:  0.0301 X   0.0753 Y  -0.1518 Z
    Strength   :     0.0032440293
    D( 22) --> V(  1) amplitude = -0.2229 alpha
    D( 22) --> V(  2) amplitude =  0.2394 alpha
    D( 23) --> V(  1) amplitude = -0.3169 alpha
    D( 24) --> V(  1) amplitude =  0.2030 alpha
    D( 22) --> S(  1) amplitude = -0.3863 beta
    D( 22) --> V(  1) amplitude =  0.1927 beta
    D( 22) --> V(  2) amplitude = -0.1627 beta
    D( 23) --> S(  1) amplitude =  0.6130 beta
    D( 23) --> V(  1) amplitude = -0.2156 beta

 Excited state   4: excitation energy (eV) =    4.5392
 Total energy for state  4:                  -286.65947500 au
    <S**2>     :  1.6844
    Trans. Mom.: -0.0967 X  -0.2099 Y  -0.2032 Z
    Strength   :     0.0105307223
    D( 23) --> V(  1) amplitude = -0.1698 alpha
    D( 24) --> V(  1) amplitude = -0.2429 alpha
    D( 24) --> V(  2) amplitude =  0.1613 alpha
    S(  1) --> V(  2) amplitude = -0.1803 alpha
    D( 22) --> S(  1) amplitude = -0.2794 beta
    D( 23) --> S(  1) amplitude = -0.3934 beta
    D( 24) --> S(  1) amplitude =  0.6740 beta
    D( 24) --> V(  1) amplitude = -0.2233 beta

 ---------------------------------------------------

                    Orbital Energies (a.u.)
 --------------------------------------------------------------

 Alpha MOs
 -- Occupied --
-14.316 -10.223 -10.220 -10.214 -10.209 -10.206 -10.196  -0.959
 -0.834  -0.736  -0.689  -0.589  -0.575  -0.536  -0.512  -0.464
 -0.430  -0.414  -0.396  -0.369  -0.346  -0.284  -0.270  -0.264
 -0.149

 Beta MOs
 -- Occupied --
-14.315 -10.223 -10.220 -10.216 -10.210 -10.195 -10.188  -0.955
 -0.826  -0.733  -0.676  -0.586  -0.565  -0.529  -0.511  -0.455
 -0.427  -0.409  -0.395  -0.364  -0.341  -0.277  -0.261  -0.251

          Ground-State Mulliken Net Atomic Charges

     Atom                 Charge (a.u.)    Spin (a.u.)
  --------------------------------------------------------
      1 C                    -0.039552      -0.011374
      2 C                    -0.120433      -0.221724
      3 C                    -0.086736       0.526116
      4 C                    -0.259051      -0.066658
      5 C                     0.092354       0.001048
      6 N                    -0.333126       0.056370
      7 H                     0.145170       0.004841
      8 H                     0.146360       0.014569
      9 H                     0.142609      -0.013972
     10 H                     0.137823       0.009236
     11 H                     0.144927       0.001530
     12 C                    -0.126280       0.737993
     13 H                     0.155934      -0.037974
  --------------------------------------------------------
  Sum of atomic charges =    -0.000000

                    Cartesian Multipole Moments
 -----------------------------------------------------------------
    Charge (ESU x 10^10)
                 0.0000
    Dipole Moment (Debye)
         X      -1.1863      Y      -1.9123      Z       0.4272
       Tot       2.2905
    Quadrupole Moments (Debye-Ang)
        XX     -38.2019     XY      -4.5173     YY     -43.1561
        XZ       2.1590     YZ       0.1659     ZZ     -39.7719

 Total job time:  88.02s(wall), 86.52s(cpu)
        *  Thank you very much for using Q-Chem.  Have a nice day.  *
