 Q-Chem 5.0, Q-Chem, Inc., Pleasanton, CA (2017)
 Q-Chem 5.0.2 for Intel X86 EM64T Linux

User input:
--------------------------------------------------------------
$molecule
0 2
C        1.1602549289    0.2751435525    0.4167785003
C        0.7926268258   -0.9790313375   -0.3684205276
C       -0.5283024739   -0.9545775097   -0.8043020789
C       -1.0821327649    0.1552569829    0.0948258623
C       -0.4633833162    1.4620000832   -0.4310785334
N        0.8068638893    1.5207058157   -0.2749970422
H        2.1428852989    0.2758897076    0.8821012617
H        1.5220346599   -1.7694709435   -0.5320773688
H       -0.9978626858   -1.4940317235   -1.6182215931
H       -2.1497157447    0.1461487722    0.3167975485
H       -1.0189322657    2.2248608254   -0.9733156393
C       -0.0459351059   -0.1523342175    1.1867751672
H       -0.1475986186   -0.7317119182    2.0932139702
$end

$rem
method                b3lyp
basis                 6-31g(d)
unrestricted          true
symmetry              off
sym_ignore            true
incdft                false
incfock               0
scf_convergence       8
thresh                14
jobtype               freq
scf_guess             read
scf_algorithm         diis
max_scf_cycles        100
$end

--------------------------------------------------------------

             Standard Nuclear Orientation (Angstroms)
    I     Atom           X                Y                Z
 ----------------------------------------------------------------
    1      C       1.1602549289     0.2751435525     0.4167785003
    2      C       0.7926268258    -0.9790313375    -0.3684205276
    3      C      -0.5283024739    -0.9545775097    -0.8043020789
    4      C      -1.0821327649     0.1552569829     0.0948258623
    5      C      -0.4633833162     1.4620000832    -0.4310785334
    6      N       0.8068638893     1.5207058157    -0.2749970422
    7      H       2.1428852989     0.2758897076     0.8821012617
    8      H       1.5220346599    -1.7694709435    -0.5320773688
    9      H      -0.9978626858    -1.4940317235    -1.6182215931
   10      H      -2.1497157447     0.1461487722     0.3167975485
   11      H      -1.0189322657     2.2248608254    -0.9733156393
   12      C      -0.0459351059    -0.1523342175     1.1867751672
   13      H      -0.1475986186    -0.7317119182     2.0932139702
 ----------------------------------------------------------------

    2    -286.8262866350      1.27E-09 Convergence criterion met
 Total energy in the final basis set = -286.82628664

                    Orbital Energies (a.u.)
 --------------------------------------------------------------

 Alpha MOs
 -- Occupied --
-14.316 -10.223 -10.220 -10.214 -10.209 -10.206 -10.196  -0.959
 -0.834  -0.736  -0.689  -0.589  -0.575  -0.536  -0.512  -0.464
 -0.430  -0.414  -0.396  -0.369  -0.346  -0.284  -0.270  -0.264
 -0.149

 Beta MOs
 -- Occupied --
-14.315 -10.223 -10.220 -10.216 -10.210 -10.195 -10.188  -0.955
 -0.826  -0.733  -0.676  -0.586  -0.565  -0.529  -0.511  -0.455
 -0.427  -0.409  -0.395  -0.364  -0.341  -0.277  -0.261  -0.251

          Ground-State Mulliken Net Atomic Charges

     Atom                 Charge (a.u.)    Spin (a.u.)
  --------------------------------------------------------
      1 C                    -0.039552      -0.011374
      2 C                    -0.120433      -0.221724
      3 C                    -0.086736       0.526116
      4 C                    -0.259051      -0.066658
      5 C                     0.092354       0.001049
      6 N                    -0.333126       0.056369
      7 H                     0.145170       0.004841
      8 H                     0.146360       0.014569
      9 H                     0.142609      -0.013972
     10 H                     0.137823       0.009236
     11 H                     0.144927       0.001530
     12 C                    -0.126280       0.737993
     13 H                     0.155934      -0.037974
  --------------------------------------------------------
  Sum of atomic charges =    -0.000000

                    Cartesian Multipole Moments
 -----------------------------------------------------------------
    Charge (ESU x 10^10)
                -0.0000
    Dipole Moment (Debye)
         X      -1.1863      Y      -1.9123      Z       0.4272
       Tot       2.2905
    Quadrupole Moments (Debye-Ang)
        XX     -38.2019     XY      -4.5173     YY     -43.1561
        XZ       2.1590     YZ       0.1659     ZZ     -39.7719

 Frequency:      -694.86                 247.67                 427.29
 Force Cnst:      1.1082                 0.0393                 0.2704
 Red. Mass:       3.8956                 1.0864                 2.5134
 IR Intens:       59.436                 20.701                  0.723
 Frequency:       476.86                 555.75                 599.47
 Force Cnst:      0.5290                 0.2765                 0.9118
 Red. Mass:       3.9487                 1.5194                 4.3065
 IR Intens:        1.646                 39.431                 10.320
 Frequency:       743.87                 784.33                 837.09
 Force Cnst:      2.0580                 2.7973                 0.8672
 Red. Mass:       6.3127                 7.7179                 2.1005
 IR Intens:        4.634                  5.774                  8.086
 Frequency:       854.63                 879.72                 893.16
 Force Cnst:      1.5859                 0.9888                 0.7739
 Red. Mass:       3.6853                 2.1686                 1.6466
 IR Intens:       16.332                  6.172                  2.044
 Frequency:       914.44                 926.37                 962.09
 Force Cnst:      1.2092                 0.8114                 0.9544
 Red. Mass:       2.4544                 1.6048                 1.7501
 IR Intens:        3.264                 14.093                  1.184
 Frequency:       980.81                1024.28                1098.29
 Force Cnst:      1.2796                 1.3811                 1.1769
 Red. Mass:       2.2577                 2.2342                 1.6560
 IR Intens:        3.252                  2.009                  1.226
 Frequency:      1164.36                1192.15                1220.53
 Force Cnst:      1.2951                 1.4547                 1.3750
 Red. Mass:       1.6214                 1.7373                 1.5666
 IR Intens:       11.878                  1.146                  7.770
 Frequency:      1256.78                1284.78                1327.12
 Force Cnst:      1.4725                 1.2163                 1.6340
 Red. Mass:       1.5822                 1.2507                 1.5746
 IR Intens:        4.909                  1.048                  0.201
 Frequency:      1331.40                1440.95                1647.28
 Force Cnst:      1.6410                 3.6405                11.9661
 Red. Mass:       1.5713                 2.9758                 7.4846
 IR Intens:       19.997                  0.956                 30.641
 Frequency:      3148.77                3181.01                3189.79
 Force Cnst:      6.3659                 6.4977                 6.5482
 Red. Mass:       1.0898                 1.0899                 1.0923
 IR Intens:       19.718                  8.734                 49.108
 Frequency:      3191.65                3240.07                3281.27
 Force Cnst:      6.5644                 6.7789                 6.9433
 Red. Mass:       1.0938                 1.0960                 1.0945
 IR Intens:        8.464                  5.326                  0.720

 STANDARD THERMODYNAMIC QUANTITIES AT   298.15 K  AND     1.00 ATM

   This Molecule has  1 Imaginary Frequencies
   Zero point vibrational energy:       63.336 kcal/mol

   Atom    1 Element C  Has Mass   12.00000
   Atom    2 Element C  Has Mass   12.00000
   Atom    3 Element C  Has Mass   12.00000
   Atom    4 Element C  Has Mass   12.00000
   Atom    5 Element C  Has Mass   12.00000
   Atom    6 Element N  Has Mass   14.00307
   Atom    7 Element H  Has Mass    1.00783
   Atom    8 Element H  Has Mass    1.00783
   Atom    9 Element H  Has Mass    1.00783
   Atom   10 Element H  Has Mass    1.00783
   Atom   11 Element H  Has Mass    1.00783
   Atom   12 Element C  Has Mass   12.00000
   Atom   13 Element H  Has Mass    1.00783
   Molecular Mass:    92.050050 amu
   Principal axes and moments of inertia in amu*Bohr^2:
                             1           2           3
    Eigenvalues --      379.27607   459.30687   562.59148
          X               0.12561     0.95252    -0.27737
          Y               0.99190    -0.12586     0.01698
          Z               0.01873     0.27726     0.96061
   Rotational Symmetry Number is   1
   The Molecule is an Asymmetric Top
   Translational Enthalpy:        0.889 kcal/mol
   Rotational Enthalpy:           0.889 kcal/mol
   Vibrational Enthalpy:         64.675 kcal/mol
   gas constant (RT):             0.592 kcal/mol
   Translational Entropy:        39.471  cal/mol.K
   Rotational Entropy:           26.085  cal/mol.K
   Vibrational Entropy:           6.311  cal/mol.K

   Total Enthalpy:               67.045 kcal/mol
   Total Entropy:                71.868  cal/mol.K

 Total job time:  261.19s(wall), 260.09s(cpu)
        *  Thank you very much for using Q-Chem.  Have a nice day.  *
