 Q-Chem 5.0, Q-Chem, Inc., Pleasanton, CA (2017)
 Q-Chem 5.0.2 for Intel X86 EM64T Linux

User input:
--------------------------------------------------------------
$molecule
0 2
C        1.1657286851    0.2823325485    0.4109159667
C        0.7820168291   -0.9898385484   -0.3434097259
C       -0.5225797753   -0.9189052605   -0.8518903628
C       -1.0786859918    0.1537348898    0.0824779620
C       -0.4735800285    1.4676314806   -0.4185685095
N        0.7994688986    1.5316783232   -0.2711771561
H        2.1478487845    0.2795429957    0.8771361095
H        1.5049176420   -1.7888230565   -0.4900001446
H       -1.0054035143   -1.4996246249   -1.6262397874
H       -2.1442177820    0.1344459790    0.3128756274
H       -1.0282359967    2.2313811441   -0.9614032227
C       -0.0262121504   -0.2091908390    1.1538323739
H       -0.1302629731   -0.6955169421    2.1135303963
$end

$rem
method                b3lyp
basis                 6-31+g(d,p)
unrestricted          true
symmetry              off
sym_ignore            true
incdft                false
incfock               0
scf_convergence       6
thresh                14
jobtype               sp
scf_guess             read
scf_algorithm         diis
max_scf_cycles        100
stability_analysis    true
max_cis_cycles        100
cis_n_roots           4
$end

--------------------------------------------------------------

             Standard Nuclear Orientation (Angstroms)
    I     Atom           X                Y                Z
 ----------------------------------------------------------------
    1      C       1.1657286851     0.2823325485     0.4109159667
    2      C       0.7820168291    -0.9898385484    -0.3434097259
    3      C      -0.5225797753    -0.9189052605    -0.8518903628
    4      C      -1.0786859918     0.1537348898     0.0824779620
    5      C      -0.4735800285     1.4676314806    -0.4185685095
    6      N       0.7994688986     1.5316783232    -0.2711771561
    7      H       2.1478487845     0.2795429957     0.8771361095
    8      H       1.5049176420    -1.7888230565    -0.4900001446
    9      H      -1.0054035143    -1.4996246249    -1.6262397874
   10      H      -2.1442177820     0.1344459790     0.3128756274
   11      H      -1.0282359967     2.2313811441    -0.9614032227
   12      C      -0.0262121504    -0.2091908390     1.1538323739
   13      H      -0.1302629731    -0.6955169421     2.1135303963
 ----------------------------------------------------------------

    2    -286.8474849344      2.80E-09 Convergence criterion met
 Total energy in the final basis set = -286.84748493

         TDDFT/TDA Excitation Energies
 ---------------------------------------------------

 Excited state   1: excitation energy (eV) =    2.5772
 Total energy for state  1:                  -286.75277582 au
    <S**2>     :  0.7764
    Trans. Mom.: -0.0708 X   0.0984 Y  -0.4424 Z
    Strength   :     0.0132829043
    S(  1) --> V(  1) amplitude =  0.8825 alpha
    S(  1) --> V(  2) amplitude = -0.3712 alpha
    D( 24) --> S(  1) amplitude =  0.1846 beta

 Excited state   2: excitation energy (eV) =    2.8649
 Total energy for state  2:                  -286.74220256 au
    <S**2>     :  0.8001
    Trans. Mom.: -0.0001 X   0.5284 Y   0.0388 Z
    Strength   :     0.0196999741
    S(  1) --> V(  1) amplitude =  0.4159 alpha
    S(  1) --> V(  2) amplitude =  0.8718 alpha
    D( 24) --> S(  1) amplitude = -0.1592 beta

 Excited state   3: excitation energy (eV) =    3.4096
 Total energy for state  3:                  -286.72218565 au
    <S**2>     :  0.7862
    Trans. Mom.: -0.0767 X   0.0702 Y   0.2622 Z
    Strength   :     0.0066455809
    S(  1) --> V(  3) amplitude =  0.9855 alpha

 Excited state   4: excitation energy (eV) =    3.9480
 Total energy for state  4:                  -286.70240036 au
    <S**2>     :  0.7902
    Trans. Mom.: -0.1965 X   0.0538 Y  -0.1698 Z
    Strength   :     0.0068065330
    S(  1) --> V(  4) amplitude =  0.9815 alpha

 ---------------------------------------------------

                    Orbital Energies (a.u.)
 --------------------------------------------------------------

 Alpha MOs
 -- Occupied --
-14.330 -10.235 -10.230 -10.228 -10.225 -10.221 -10.207  -0.973
 -0.850  -0.750  -0.696  -0.601  -0.585  -0.547  -0.522  -0.473
 -0.444  -0.425  -0.408  -0.378  -0.356  -0.296  -0.284  -0.278
 -0.158

 Beta MOs
 -- Occupied --
-14.329 -10.235 -10.231 -10.230 -10.222 -10.217 -10.197  -0.968
 -0.842  -0.747  -0.684  -0.597  -0.577  -0.541  -0.519  -0.464
 -0.441  -0.419  -0.406  -0.373  -0.351  -0.287  -0.275  -0.265

          Ground-State Mulliken Net Atomic Charges

     Atom                 Charge (a.u.)    Spin (a.u.)
  --------------------------------------------------------
      1 C                    -0.134764      -0.019305
      2 C                    -0.101256      -0.236849
      3 C                    -0.144603       0.720979
      4 C                     0.007358      -0.101874
      5 C                    -0.071282      -0.001918
      6 N                    -0.179240       0.062487
      7 H                     0.138697       0.004560
      8 H                     0.138968       0.010771
      9 H                     0.138597      -0.026704
     10 H                     0.129369       0.011031
     11 H                     0.132187       0.001600
     12 C                    -0.200861       0.600814
     13 H                     0.146830      -0.025593
  --------------------------------------------------------
  Sum of atomic charges =    -0.000000

                    Cartesian Multipole Moments
 -----------------------------------------------------------------
    Charge (ESU x 10^10)
                -0.0000
    Dipole Moment (Debye)
         X      -1.2998      Y      -2.0906      Z       0.7678
       Tot       2.5787
    Quadrupole Moments (Debye-Ang)
        XX     -39.0403     XY      -5.0816     YY     -45.0465
        XZ       2.2540     YZ       0.3721     ZZ     -41.3034

 Total job time:  190.88s(wall), 188.36s(cpu)
        *  Thank you very much for using Q-Chem.  Have a nice day.  *
