 Q-Chem 5.0, Q-Chem, Inc., Pleasanton, CA (2017)
 Q-Chem 5.0.2 for Intel X86 EM64T Linux

User input:
--------------------------------------------------------------
$molecule
0 2
C        1.3457725428    0.0073023850    0.1999493065
C        1.0897040707   -1.3380161626    0.7559496441
C        2.0497806694   -2.1088063263    1.2314553032
C       -1.8068384926    1.7950048493   -0.3598067106
C       -0.8784330528    0.6053047176   -0.3790258284
N        0.5249742205    0.8575065954   -0.2942932655
H        2.3975221502    0.3045970255    0.2164185975
H        0.0602872284   -1.7091261781    0.7679563784
H        2.1351691611   -3.0933474343    1.6736547024
H       -2.2281359478    2.5676413478    0.2658653685
H       -1.2462033287   -0.3462542473    0.0201016180
C       -1.6367890571    1.2439567461   -1.5161133536
H       -1.8068101641    1.2142366820   -2.5821117604
$end

$rem
method                b3lyp
basis                 6-31g(d)
unrestricted          true
symmetry              off
sym_ignore            true
incdft                false
incfock               0
scf_convergence       8
thresh                14
jobtype               opt
scf_guess             read
scf_algorithm         diis
max_scf_cycles        100
geom_opt_tol_gradient 600
geom_opt_tol_displacement 2400
geom_opt_tol_energy   200
geom_opt_max_cycles   100
$end

--------------------------------------------------------------

    2    -286.7710612984      1.40E-09 Convergence criterion met
 Total energy in the final basis set = -286.77106130
   11    -286.7710640273      7.61E-09 Convergence criterion met
 Total energy in the final basis set = -286.77106403

             Standard Nuclear Orientation (Angstroms)
    I     Atom           X                Y                Z
 ----------------------------------------------------------------
    1      C       1.3474454554     0.0061591498     0.1953311648
    2      C       1.0889820095    -1.3373101592     0.7552806673
    3      C       2.0472887281    -2.1063339039     1.2372709552
    4      C      -1.8063641018     1.7910760380    -0.3557082328
    5      C      -0.8759328021     0.6031403969    -0.3857812765
    6      N       0.5278468848     0.8566072554    -0.3003683640
    7      H       2.3994047735     0.3023356374     0.2134269886
    8      H       0.0591241195    -1.7072383204     0.7676129104
    9      H       2.1307855998    -3.0884201774     1.6852868973
   10      H      -2.2263384888     2.5591246992     0.2763969383
   11      H      -1.2397165715    -0.3513993003     0.0097571505
   12      C      -1.6394734031     1.2479347573    -1.5165153928
   13      H      -1.8130522034     1.2243239274    -2.5819904061
 ----------------------------------------------------------------

    9    -286.7710650078      8.05E-09 Convergence criterion met
 Total energy in the final basis set = -286.77106501
 Final energy is   -286.771065007844
 **  OPTIMIZATION CONVERGED  **

                    Orbital Energies (a.u.)
 --------------------------------------------------------------

 Alpha MOs
 -- Occupied --
-14.319 -10.230 -10.225 -10.222 -10.208 -10.207 -10.204  -0.924
 -0.858  -0.782  -0.650  -0.596  -0.571  -0.539  -0.503  -0.497
 -0.455  -0.417  -0.373  -0.352  -0.308  -0.276  -0.260  -0.243
 -0.228

 Beta MOs
 -- Occupied --
-14.320 -10.230 -10.224 -10.208 -10.207 -10.207 -10.206  -0.925
 -0.858  -0.768  -0.643  -0.582  -0.571  -0.534  -0.499  -0.490
 -0.447  -0.410  -0.375  -0.351  -0.305  -0.276  -0.240  -0.238

          Ground-State Mulliken Net Atomic Charges

     Atom                 Charge (a.u.)    Spin (a.u.)
  --------------------------------------------------------
      1 C                     0.040981       0.060642
      2 C                    -0.129082      -0.167866
      3 C                    -0.198263       1.067038
      4 C                    -0.117290      -0.002369
      5 C                    -0.014456       0.006019
      6 N                    -0.361561      -0.038992
      7 H                     0.139833       0.006301
      8 H                     0.158214       0.071619
      9 H                     0.171133       0.002613
     10 H                     0.152609      -0.000605
     11 H                     0.123127      -0.001297
     12 C                    -0.117827      -0.002507
     13 H                     0.152583      -0.000594
  --------------------------------------------------------
  Sum of atomic charges =    -0.000000

                    Cartesian Multipole Moments
 -----------------------------------------------------------------
    Charge (ESU x 10^10)
                 0.0000
    Dipole Moment (Debye)
         X      -1.3623      Y      -1.3424      Z       0.3913
       Tot       1.9522
    Quadrupole Moments (Debye-Ang)
        XX     -39.3926     XY      -3.6945     YY     -37.5498
        XZ       1.6963     YZ      -1.4371     ZZ     -38.7803

 Total job time:  22.61s(wall), 70.45s(cpu)
        *  Thank you very much for using Q-Chem.  Have a nice day.  *
