 Q-Chem 5.0, Q-Chem, Inc., Pleasanton, CA (2017)
 Q-Chem 5.0.2 for Intel X86 EM64T Linux

User input:
--------------------------------------------------------------
$molecule
0 2
C        1.2863706972    0.2499780317    0.3085573827
C        0.6118606183   -1.0280428952   -0.2044832089
C       -0.6728283958   -0.5580226344   -0.8629919161
C       -1.0834210191    0.1927783471    0.3485165640
C       -0.4579181605    1.2479576470   -0.5533558311
N        0.8589669430    1.4247191284   -0.3907885441
H        2.3078459469    0.2047243326    0.6683105829
H        1.1483682638   -1.9516392569   -0.3864807331
H       -1.2058037188   -0.8822000330   -1.7470576627
H       -2.0853299112    0.3131586124    0.7524359212
H       -1.0554546829    1.9156679427   -1.1633711254
C        0.1484146538   -0.3862046688    1.1031097035
H        0.1951486813   -0.7467913205    2.1244455634
$end

$rem
method                b3lyp
basis                 6-31+g(d,p)
unrestricted          true
symmetry              off
sym_ignore            true
incdft                false
incfock               0
scf_convergence       8
thresh                14
jobtype               rpath
scf_guess             core
scf_guess_mix         5
scf_algorithm         diis
max_scf_cycles        100
rpath_direction       1
rpath_tol_displacement 1000
rpath_max_cycles      50
geom_opt_max_cycles   300
geom_opt_hessian      read
$end

--------------------------------------------------------------

   22    -286.8367502460      6.27E-09 Convergence criterion met
 Total energy in the final basis set = -286.83675025
   22    -286.8383770484      6.38E-09 Convergence criterion met
 Total energy in the final basis set = -286.83837705
   22    -286.8383421095      7.89E-09 Convergence criterion met
 Total energy in the final basis set = -286.83834211
   22    -286.8383793431      6.56E-09 Convergence criterion met
 Total energy in the final basis set = -286.83837934
   22    -286.8419049601      2.90E-09 Convergence criterion met
 Total energy in the final basis set = -286.84190496
   22    -286.8418074954      5.88E-09 Convergence criterion met
 Total energy in the final basis set = -286.84180750
   22    -286.8419132162      2.90E-09 Convergence criterion met
 Total energy in the final basis set = -286.84191322
   22    -286.8445555825      4.06E-09 Convergence criterion met
 Total energy in the final basis set = -286.85007736
   21    -286.8593605125      4.67E-09 Convergence criterion met
 Total energy in the final basis set = -286.85936051
   21    -286.8593597752      4.75E-09 Convergence criterion met
 Total energy in the final basis set = -286.85935978
   21    -286.8593610949      4.71E-09 Convergence criterion met
 Total energy in the final basis set = -286.85936109
   21    -286.8567891026      2.95E-09 Convergence criterion met
 Total energy in the final basis set = -286.85678910
   21    -286.8593665711      4.65E-09 Convergence criterion met
 Total energy in the final basis set = -286.85936657
   21    -286.8593640649      4.76E-09 Convergence criterion met
 Total energy in the final basis set = -286.85936406
   21    -286.8593674709      4.69E-09 Convergence criterion met
 Total energy in the final basis set = -286.85936747

                    Orbital Energies (a.u.)
 --------------------------------------------------------------

 Alpha MOs
 -- Occupied --
-14.334 -10.234 -10.230 -10.220 -10.219 -10.218 -10.217  -0.979
 -0.867  -0.759  -0.674  -0.615  -0.580  -0.543  -0.525  -0.476
 -0.448  -0.415  -0.410  -0.366  -0.347  -0.308  -0.285  -0.267
 -0.193

 Beta MOs
 -- Occupied --
-14.333 -10.232 -10.230 -10.220 -10.219 -10.217 -10.205  -0.975
 -0.861  -0.752  -0.662  -0.611  -0.576  -0.536  -0.519  -0.470
 -0.443  -0.412  -0.404  -0.358  -0.342  -0.302  -0.274  -0.261

          Ground-State Mulliken Net Atomic Charges

     Atom                 Charge (a.u.)    Spin (a.u.)
  --------------------------------------------------------
      1 C                    -0.289904       0.110629
      2 C                    -0.050994      -0.155224
      3 C                    -0.155620       0.979264
      4 C                    -0.024100      -0.113031
      5 C                    -0.058573       0.052563
      6 N                    -0.169253       0.037664
      7 H                     0.144347       0.003070
      8 H                     0.139096       0.005456
      9 H                     0.129611      -0.020192
     10 H                     0.134600       0.024742
     11 H                     0.131361       0.000973
     12 C                    -0.063004       0.074081
     13 H                     0.132433       0.000007
  --------------------------------------------------------
  Sum of atomic charges =    -0.000000

                    Cartesian Multipole Moments
 -----------------------------------------------------------------
    Charge (ESU x 10^10)
                -0.0000
    Dipole Moment (Debye)
         X      -1.2502      Y      -1.5595      Z       0.9759
       Tot       2.2243
    Quadrupole Moments (Debye-Ang)
        XX     -39.7620     XY      -5.6629     YY     -44.7668
        XZ       2.4612     YZ       0.7722     ZZ     -40.5911

             Standard Nuclear Orientation (Angstroms)
    I     Atom           X                Y                Z
 ----------------------------------------------------------------
    1      C       1.2863706972     0.2499780317     0.3085573827
    2      C       0.6118606183    -1.0280428952    -0.2044832089
    3      C      -0.6728283958    -0.5580226344    -0.8629919161
    4      C      -1.0834210191     0.1927783471     0.3485165640
    5      C      -0.4579181605     1.2479576470    -0.5533558311
    6      N       0.8589669430     1.4247191284    -0.3907885441
    7      H       2.3078459469     0.2047243326     0.6683105829
    8      H       1.1483682638    -1.9516392569    -0.3864807331
    9      H      -1.2058037188    -0.8822000330    -1.7470576627
   10      H      -2.0853299112     0.3131586124     0.7524359212
   11      H      -1.0554546829     1.9156679427    -1.1633711254
   12      C       0.1484146538    -0.3862046688     1.1031097035
   13      H       0.1951486813    -0.7467913205     2.1244455634
 ----------------------------------------------------------------

 Total job time:  4237.46s(wall), 14568.49s(cpu)
        *  Thank you very much for using Q-Chem.  Have a nice day.  *
