 Q-Chem 5.0, Q-Chem, Inc., Pleasanton, CA (2017)
 Q-Chem 5.0.2 for Intel X86 EM64T Linux

User input:
--------------------------------------------------------------
$molecule
0 2
C        1.2458044807    0.2522059688    0.2545122815
C        0.5763958154   -1.1271830118   -0.2009342833
C       -0.7352018094   -0.8930774235   -0.7888143033
C       -1.0552696931    0.2154987193    0.2121512830
C       -0.4469462702    1.4697737773   -0.4020261845
N        0.8380542032    1.4588163235   -0.4189275106
H        2.2842794435    0.1717543832    0.5556121722
H        1.2221148521   -1.9923640268   -0.3047910022
H       -1.1449988548   -1.0966569778   -1.7747884044
H       -2.0634897396    0.2895127586    0.6238250247
H       -1.0208474823    2.2406054957   -0.9115746688
C        0.1465718999   -0.3415270865    1.0572830721
H        0.1535331544   -0.6473589005    2.0984725241
$end

$rem
method                b3lyp
basis                 6-31+g(d,p)
unrestricted          true
symmetry              off
sym_ignore            true
incdft                false
incfock               0
scf_convergence       8
thresh                14
jobtype               sp
scf_guess             read
scf_algorithm         diis
max_scf_cycles        100
scf_final_print       1
$end

--------------------------------------------------------------

             Standard Nuclear Orientation (Angstroms)
    I     Atom           X                Y                Z
 ----------------------------------------------------------------
    1      C       1.2458044807     0.2522059688     0.2545122815
    2      C       0.5763958154    -1.1271830118    -0.2009342833
    3      C      -0.7352018094    -0.8930774235    -0.7888143033
    4      C      -1.0552696931     0.2154987193     0.2121512830
    5      C      -0.4469462702     1.4697737773    -0.4020261845
    6      N       0.8380542032     1.4588163235    -0.4189275106
    7      H       2.2842794435     0.1717543832     0.5556121722
    8      H       1.2221148521    -1.9923640268    -0.3047910022
    9      H      -1.1449988548    -1.0966569778    -1.7747884044
   10      H      -2.0634897396     0.2895127586     0.6238250247
   11      H      -1.0208474823     2.2406054957    -0.9115746688
   12      C       0.1465718999    -0.3415270865     1.0572830721
   13      H       0.1535331544    -0.6473589005     2.0984725241
 ----------------------------------------------------------------

    2    -286.8593674709      1.09E-09 Convergence criterion met
 Total energy in the final basis set = -286.85936747

                    Orbital Energies (a.u.)
 --------------------------------------------------------------

 Alpha MOs
 -- Occupied --
-14.334 -10.234 -10.230 -10.220 -10.219 -10.218 -10.217  -0.979
 -0.867  -0.759  -0.674  -0.615  -0.580  -0.543  -0.525  -0.476
 -0.448  -0.415  -0.410  -0.366  -0.347  -0.308  -0.285  -0.267
 -0.193

 Beta MOs
 -- Occupied --
-14.333 -10.232 -10.230 -10.220 -10.219 -10.217 -10.205  -0.975
 -0.861  -0.752  -0.662  -0.611  -0.576  -0.536  -0.519  -0.470
 -0.443  -0.412  -0.404  -0.358  -0.342  -0.302  -0.274  -0.261

          Ground-State Mulliken Net Atomic Charges

     Atom                 Charge (a.u.)    Spin (a.u.)
  --------------------------------------------------------
      1 C                    -0.289904       0.110627
      2 C                    -0.050994      -0.155223
      3 C                    -0.155620       0.979263
      4 C                    -0.024100      -0.113031
      5 C                    -0.058573       0.052563
      6 N                    -0.169253       0.037664
      7 H                     0.144347       0.003070
      8 H                     0.139095       0.005455
      9 H                     0.129611      -0.020191
     10 H                     0.134600       0.024742
     11 H                     0.131361       0.000973
     12 C                    -0.063004       0.074082
     13 H                     0.132433       0.000007
  --------------------------------------------------------
  Sum of atomic charges =    -0.000000

                    Cartesian Multipole Moments
 -----------------------------------------------------------------
    Charge (ESU x 10^10)
                -0.0000
    Dipole Moment (Debye)
         X      -1.2502      Y      -1.5595      Z       0.9759
       Tot       2.2243
    Quadrupole Moments (Debye-Ang)
        XX     -39.7627     XY      -5.6638     YY     -44.7678
        XZ       2.4612     YZ       0.7721     ZZ     -40.5906

 Total job time:  5.85s(wall), 11.94s(cpu)
        *  Thank you very much for using Q-Chem.  Have a nice day.  *
