 Q-Chem 5.0, Q-Chem, Inc., Pleasanton, CA (2017)
 Q-Chem 5.0.2 for Intel X86 EM64T Linux

User input:
--------------------------------------------------------------
$molecule
0 2
C        1.3029313873    0.2630868319    0.3312564017
C        0.6012637494   -1.0027948518   -0.1972134995
C       -0.6449047225   -0.4108752160   -0.9057058722
C       -1.0997528622    0.1899098233    0.3965876043
C       -0.4634224745    1.1032149007   -0.6690041526
N        0.8766210095    1.4242998094   -0.3528808537
H        2.3199620677    0.2138916240    0.7016884426
H        1.1112330884   -1.9363311516   -0.4037339323
H       -1.2148451818   -0.8374420408   -1.7228637233
H       -2.0974041454    0.3275362999    0.7960548094
H       -1.0649896381    1.8292235932   -1.2029024032
C        0.1462920227   -0.4003151561    1.1054444449
H        0.2270156996   -0.7634044661    2.1232727340
$end

$rem
method                b3lyp
basis                 6-31+g(d,p)
unrestricted          true
symmetry              off
sym_ignore            true
incdft                false
incfock               0
scf_convergence       6
thresh                14
jobtype               sp
scf_guess             read
scf_algorithm         diis
max_scf_cycles        100
stability_analysis    true
max_cis_cycles        100
cis_n_roots           4
$end

--------------------------------------------------------------

             Standard Nuclear Orientation (Angstroms)
    I     Atom           X                Y                Z
 ----------------------------------------------------------------
    1      C       1.3029313873     0.2630868319     0.3312564017
    2      C       0.6012637494    -1.0027948518    -0.1972134995
    3      C      -0.6449047225    -0.4108752160    -0.9057058722
    4      C      -1.0997528622     0.1899098233     0.3965876043
    5      C      -0.4634224745     1.1032149007    -0.6690041526
    6      N       0.8766210095     1.4242998094    -0.3528808537
    7      H       2.3199620677     0.2138916240     0.7016884426
    8      H       1.1112330884    -1.9363311516    -0.4037339323
    9      H      -1.2148451818    -0.8374420408    -1.7228637233
   10      H      -2.0974041454     0.3275362999     0.7960548094
   11      H      -1.0649896381     1.8292235932    -1.2029024032
   12      C       0.1462920227    -0.4003151561     1.1054444449
   13      H       0.2270156996    -0.7634044661     2.1232727340
 ----------------------------------------------------------------

    2    -286.8454406964      7.54E-10 Convergence criterion met
 Total energy in the final basis set = -286.84544070

         TDDFT/TDA Excitation Energies
 ---------------------------------------------------

 Excited state   1: excitation energy (eV) =    2.7057
 Total energy for state  1:                  -286.74600782 au
    <S**2>     :  0.7612
    Trans. Mom.: -0.0200 X   0.0267 Y   0.0564 Z
    Strength   :     0.0002843194
    D( 23) --> S(  1) amplitude =  0.9892 beta

 Excited state   2: excitation energy (eV) =    3.0264
 Total energy for state  2:                  -286.73422173 au
    <S**2>     :  0.7993
    Trans. Mom.: -0.0017 X  -0.0018 Y   0.0001 Z
    Strength   :     0.0000004453
    D( 24) --> S(  1) amplitude =  0.9960 beta

 Excited state   3: excitation energy (eV) =    3.7162
 Total energy for state  3:                  -286.70887328 au
    <S**2>     :  0.7866
    Trans. Mom.:  0.2652 X  -0.1251 Y   0.1526 Z
    Strength   :     0.0099499041
    D( 22) --> S(  1) amplitude =  0.9948 beta

 Excited state   4: excitation energy (eV) =    5.2969
 Total energy for state  4:                  -286.65078381 au
    <S**2>     :  0.8290
    Trans. Mom.:  0.0483 X  -0.0637 Y  -0.1353 Z
    Strength   :     0.0032029727
    S(  1) --> V(  1) amplitude =  0.9944 alpha

 ---------------------------------------------------

                    Orbital Energies (a.u.)
 --------------------------------------------------------------

 Alpha MOs
 -- Occupied --
-14.349 -10.225 -10.225 -10.216 -10.216 -10.216 -10.216  -0.996
 -0.846  -0.802  -0.657  -0.597  -0.582  -0.549  -0.540  -0.462
 -0.435  -0.424  -0.405  -0.393  -0.346  -0.286  -0.283  -0.257
 -0.223

 Beta MOs
 -- Occupied --
-14.333 -10.226 -10.226 -10.215 -10.214 -10.214 -10.214  -0.986
 -0.822  -0.798  -0.652  -0.594  -0.577  -0.544  -0.536  -0.460
 -0.431  -0.400  -0.399  -0.387  -0.331  -0.278  -0.269  -0.253

          Ground-State Mulliken Net Atomic Charges

     Atom                 Charge (a.u.)    Spin (a.u.)
  --------------------------------------------------------
      1 C                    -0.287914      -0.079896
      2 C                    -0.041130       0.087060
      3 C                    -0.040885       0.089242
      4 C                    -0.036651       0.086420
      5 C                    -0.292425      -0.080243
      6 N                    -0.069555       0.815264
      7 H                     0.141423       0.001059
      8 H                     0.131855      -0.002096
      9 H                     0.131726      -0.002168
     10 H                     0.131966      -0.002068
     11 H                     0.141314       0.001075
     12 C                    -0.041169       0.088537
     13 H                     0.131443      -0.002187
  --------------------------------------------------------
  Sum of atomic charges =    -0.000000

                    Cartesian Multipole Moments
 -----------------------------------------------------------------
    Charge (ESU x 10^10)
                -0.0000
    Dipole Moment (Debye)
         X      -1.3099      Y      -2.1247      Z       0.5314
       Tot       2.5519
    Quadrupole Moments (Debye-Ang)
        XX     -39.2769     XY      -4.5816     YY     -44.8178
        XZ       2.4950     YZ       0.4496     ZZ     -39.8157

 Total job time:  148.15s(wall), 144.97s(cpu)
        *  Thank you very much for using Q-Chem.  Have a nice day.  *
