 Q-Chem 5.0, Q-Chem, Inc., Pleasanton, CA (2017)
 Q-Chem 5.0.2 for Intel X86 EM64T Linux

User input:
--------------------------------------------------------------
$molecule
0 2
C        1.2441508653    0.2526947286    0.2496762401
C        0.5760927663   -1.1277464079   -0.2002974515
C       -0.7354174521   -0.8968731126   -0.7898711529
C       -1.0555134800    0.2138824937    0.2083840400
C       -0.4451867434    1.4714614176   -0.3981744832
N        0.8379687110    1.4626302129   -0.4195799834
H        2.2828752363    0.1726278354    0.5536640370
H        1.2222758934   -1.9943866245   -0.2988227385
H       -1.1395506244   -1.1004765774   -1.7787841263
H       -2.0650569088    0.2854232602    0.6192402681
H       -1.0208768006    2.2504728010   -0.8954714745
C        0.1461590139   -0.3436761721    1.0535232001
H        0.1520795229   -0.6460338548    2.0965136255
****
C        1.3000490247    0.2656862792    0.3319592699
C        0.6011396499   -1.0017464576   -0.1982291172
C       -0.6444846631   -0.4102728332   -0.9047128521
C       -1.0998221039    0.1881053963    0.3971625858
C       -0.4614560444    1.1014635558   -0.6671965437
N        0.8772514255    1.4292482467   -0.3510239300
H        2.3159885428    0.2181043647    0.7084321334
H        1.1108707805   -1.9357515725   -0.4063614920
H       -1.2134722511   -0.8315509733   -1.7260260721
H       -2.0959797380    0.3295467555    0.8011051577
H       -1.0646870906    1.8219686317   -1.2084678514
C        0.1462459873   -0.4025340993    1.1036590233
H        0.2283564802   -0.7722672938    2.1196996885
$end

$rem
method                b3lyp
basis                 6-31g(d)
unrestricted          true
symmetry              off
sym_ignore            true
incdft                false
incfock               0
scf_convergence       8
thresh                14
jobtype               fsm
scf_guess             core
scf_guess_mix         5
scf_algorithm         diis
max_scf_cycles        100
fsm_nnode             21
fsm_ngrad             6
fsm_mode              2
fsm_opt_mode          2
$end

--------------------------------------------------------------

   20    -286.8383383834      7.22E-09 Convergence criterion met
 Total energy in the final basis set = -286.83833838
   20    -286.8249846471      5.81E-09 Convergence criterion met
 Total energy in the final basis set = -286.82498465
   21    -286.8379821116      8.96E-09 Convergence criterion met
 Total energy in the final basis set = -286.83798211
   21    -286.8358952973      4.57E-09 Convergence criterion met
 Total energy in the final basis set = -286.83589530
   21    -286.8371488574      4.90E-09 Convergence criterion met
 Total energy in the final basis set = -286.83714886
   21    -286.8243756173      4.75E-09 Convergence criterion met
 Total energy in the final basis set = -286.82437562
   21    -286.8237549480      6.02E-09 Convergence criterion met
 Total energy in the final basis set = -286.82375495
   21    -286.8233483491      9.02E-09 Convergence criterion met
 Total energy in the final basis set = -286.81452604
   22    -286.8143037905      6.57E-09 Convergence criterion met
 Total energy in the final basis set = -286.81430379
   22    -286.8145179426      5.36E-09 Convergence criterion met
 Total energy in the final basis set = -286.81451794
   22    -286.8143128162      6.60E-09 Convergence criterion met
 Total energy in the final basis set = -286.81431282
   22    -286.8145123643      5.35E-09 Convergence criterion met
 Total energy in the final basis set = -286.81451236
   22    -286.8143192913      6.66E-09 Convergence criterion met
 Total energy in the final basis set = -286.81431929
   22    -286.8145153091      5.35E-09 Convergence criterion met
 Total energy in the final basis set = -286.81451531
   22    -286.8143171430      6.69E-09 Convergence criterion met
 Total energy in the final basis set = -286.81431714

                    Orbital Energies (a.u.)
 --------------------------------------------------------------

 Alpha MOs
 -- Occupied --
-14.325 -10.220 -10.219 -10.214 -10.210 -10.208 -10.204  -0.978
 -0.840  -0.778  -0.653  -0.594  -0.574  -0.539  -0.531  -0.448
 -0.442  -0.409  -0.402  -0.380  -0.341  -0.281  -0.267  -0.245
 -0.194

 Beta MOs
 -- Occupied --
-14.312 -10.221 -10.214 -10.214 -10.209 -10.206 -10.203  -0.968
 -0.822  -0.773  -0.645  -0.591  -0.569  -0.534  -0.525  -0.445
 -0.436  -0.399  -0.394  -0.370  -0.327  -0.274  -0.253  -0.231

          Ground-State Mulliken Net Atomic Charges

     Atom                 Charge (a.u.)    Spin (a.u.)
  --------------------------------------------------------
      1 C                    -0.045960      -0.045735
      2 C                    -0.130512       0.021492
      3 C                    -0.120461       0.423242
      4 C                    -0.155090       0.029599
      5 C                    -0.015649      -0.147899
      6 N                    -0.304986       0.643062
      7 H                     0.149485       0.000718
      8 H                     0.145123      -0.001601
      9 H                     0.150653      -0.019322
     10 H                     0.145149       0.007871
     11 H                     0.148750       0.003309
     12 C                    -0.108105       0.090217
     13 H                     0.141603      -0.004954
  --------------------------------------------------------
  Sum of atomic charges =    -0.000000

                    Cartesian Multipole Moments
 -----------------------------------------------------------------
    Charge (ESU x 10^10)
                 0.0000
    Dipole Moment (Debye)
         X      -1.4397      Y      -1.9587      Z       0.6059
       Tot       2.5053
    Quadrupole Moments (Debye-Ang)
        XX     -38.2618     XY      -4.3008     YY     -43.1352
        XZ       2.4649     YZ       0.7835     ZZ     -39.3245

             Standard Nuclear Orientation (Angstroms)
    I     Atom           X                Y                Z
 ----------------------------------------------------------------
    1      C       1.2862847909     0.2552206373     0.3161956429
    2      C       0.6080695616    -1.0238043560    -0.2055948518
    3      C      -0.6708830403    -0.5240082434    -0.8720136088
    4      C      -1.0838340397     0.1926730811     0.3581692647
    5      C      -0.4607105352     1.2136015012    -0.5850682925
    6      N       0.8627246488     1.4247880879    -0.3851873215
    7      H       2.3068565006     0.2088227364     0.6798802270
    8      H       1.1491799612    -1.9445442561    -0.3910674941
    9      H      -1.2145995802    -0.8929637967    -1.7327315279
   10      H      -2.0866761435     0.3155356594     0.7590368338
   11      H      -1.0471376781     1.9185772125    -1.1640851843
   12      C       0.1446943563    -0.3924549750     1.0991307466
   13      H       0.2022511139    -0.7553600558     2.1201822621
 ----------------------------------------------------------------

 Total job time:  1667.87s(wall), 5349.42s(cpu)
        *  Thank you very much for using Q-Chem.  Have a nice day.  *
