 Q-Chem 5.0, Q-Chem, Inc., Pleasanton, CA (2017)
 Q-Chem 5.0.2 for Intel X86 EM64T Linux

User input:
--------------------------------------------------------------
$molecule
0 2
C        1.2996058262    0.2660350258    0.3331908980
C        0.6002727092   -1.0020274838   -0.1978148853
C       -0.6447715862   -0.4101298348   -0.9049914339
C       -1.0991204165    0.1891478011    0.3967577251
C       -0.4610978696    1.1018594116   -0.6667973994
N        0.8776952333    1.4291047430   -0.3511848725
H        2.3162468547    0.2171485101    0.7075669742
H        1.1132013688   -1.9340755772   -0.4069191068
H       -1.2159570787   -0.8319764301   -1.7242774415
H       -2.0959177514    0.3279814911    0.8001986054
H       -1.0637964006    1.8218941947   -1.2092389750
C        0.1467154053   -0.4022628063    1.1038276730
H        0.2269237054   -0.7726990451    2.1196822387
$end

$rem
method                b3lyp
basis                 6-31g(d)
unrestricted          true
symmetry              off
sym_ignore            true
incdft                false
incfock               0
scf_convergence       8
thresh                14
jobtype               opt
scf_guess             core
scf_guess_mix         5
scf_algorithm         diis
max_scf_cycles        100
geom_opt_max_cycles   300
$end

--------------------------------------------------------------

   20    -286.8249819809      6.75E-09 Convergence criterion met
 Total energy in the final basis set = -286.82498198
   14    -286.8249839490      2.54E-09 Convergence criterion met
 Total energy in the final basis set = -286.82498395

             Standard Nuclear Orientation (Angstroms)
    I     Atom           X                Y                Z
 ----------------------------------------------------------------
    1      C       1.3000490247     0.2656862792     0.3319592699
    2      C       0.6011396499    -1.0017464576    -0.1982291172
    3      C      -0.6444846631    -0.4102728332    -0.9047128521
    4      C      -1.0998221039     0.1881053963     0.3971625858
    5      C      -0.4614560444     1.1014635558    -0.6671965437
    6      N       0.8772514255     1.4292482467    -0.3510239300
    7      H       2.3159885428     0.2181043647     0.7084321334
    8      H       1.1108707805    -1.9357515725    -0.4063614920
    9      H      -1.2134722511    -0.8315509733    -1.7260260721
   10      H      -2.0959797380     0.3295467555     0.8011051577
   11      H      -1.0646870906     1.8219686317    -1.2084678514
   12      C       0.1462459873    -0.4025340993     1.1036590233
   13      H       0.2283564802    -0.7722672938     2.1196996885
 ----------------------------------------------------------------

   14    -286.8249847384      2.70E-09 Convergence criterion met
 Total energy in the final basis set = -286.82498474
 Final energy is   -286.824984738446
 **  OPTIMIZATION CONVERGED  **

                    Orbital Energies (a.u.)
 --------------------------------------------------------------

 Alpha MOs
 -- Occupied --
-14.335 -10.215 -10.215 -10.207 -10.207 -10.207 -10.206  -0.986
 -0.836  -0.793  -0.649  -0.588  -0.574  -0.542  -0.533  -0.455
 -0.427  -0.415  -0.395  -0.384  -0.337  -0.275  -0.274  -0.248
 -0.212

 Beta MOs
 -- Occupied --
-14.319 -10.217 -10.216 -10.205 -10.205 -10.205 -10.205  -0.976
 -0.811  -0.789  -0.644  -0.585  -0.568  -0.537  -0.529  -0.453
 -0.423  -0.392  -0.389  -0.378  -0.322  -0.269  -0.257  -0.244

          Ground-State Mulliken Net Atomic Charges

     Atom                 Charge (a.u.)    Spin (a.u.)
  --------------------------------------------------------
      1 C                    -0.044890      -0.080301
      2 C                    -0.124633       0.089481
      3 C                    -0.125085       0.089338
      4 C                    -0.124642       0.089115
      5 C                    -0.044764      -0.080296
      6 N                    -0.285879       0.811581
      7 H                     0.149314       0.001046
      8 H                     0.144036      -0.002497
      9 H                     0.144021      -0.002492
     10 H                     0.143985      -0.002483
     11 H                     0.149320       0.001045
     12 C                    -0.124722       0.088940
     13 H                     0.143939      -0.002476
  --------------------------------------------------------
  Sum of atomic charges =    -0.000000

                    Cartesian Multipole Moments
 -----------------------------------------------------------------
    Charge (ESU x 10^10)
                -0.0000
    Dipole Moment (Debye)
         X      -1.1900      Y      -1.9364      Z       0.4776
       Tot       2.3224
    Quadrupole Moments (Debye-Ang)
        XX     -38.3828     XY      -4.0944     YY     -43.3591
        XZ       2.2734     YZ       0.3470     ZZ     -38.8750

 Total job time:  48.31s(wall), 147.46s(cpu)
        *  Thank you very much for using Q-Chem.  Have a nice day.  *
