 Q-Chem 5.0, Q-Chem, Inc., Pleasanton, CA (2017)
 Q-Chem 5.0.2 for Intel X86 EM64T Linux

User input:
--------------------------------------------------------------
$molecule
0 2
C        1.2440743142    0.2527275317    0.2503193254
C        0.5757887268   -1.1281582300   -0.2004073058
C       -0.7355507221   -0.8966105992   -0.7898570614
C       -1.0558106964    0.2139392876    0.2086124757
C       -0.4448641129    1.4714079870   -0.3979024983
N        0.8381818064    1.4624731756   -0.4190815764
H        2.2826029050    0.1720494619    0.5547101703
H        1.2235943286   -1.9933004274   -0.3012312881
H       -1.1404786482   -1.1003669026   -1.7784177914
H       -2.0651052431    0.2854326388    0.6198920614
H       -1.0204750992    2.2493841864   -0.8970717314
C        0.1461730167   -0.3443211364    1.0534239816
H        0.1518694241   -0.6446569734    2.0970112387
$end

$rem
method                b3lyp
basis                 6-31g(d)
unrestricted          true
symmetry              off
sym_ignore            true
incdft                false
incfock               0
scf_convergence       8
thresh                14
jobtype               opt
scf_guess             core
scf_guess_mix         5
scf_algorithm         diis
max_scf_cycles        100
geom_opt_max_cycles   300
$end

--------------------------------------------------------------

   20    -286.8383370206      7.61E-09 Convergence criterion met
 Total energy in the final basis set = -286.83833702
   15    -286.8383380254      6.71E-09 Convergence criterion met
 Total energy in the final basis set = -286.83833803

             Standard Nuclear Orientation (Angstroms)
    I     Atom           X                Y                Z
 ----------------------------------------------------------------
    1      C       1.2441508653     0.2526947286     0.2496762401
    2      C       0.5760927663    -1.1277464079    -0.2002974515
    3      C      -0.7354174521    -0.8968731126    -0.7898711529
    4      C      -1.0555134800     0.2138824937     0.2083840400
    5      C      -0.4451867434     1.4714614176    -0.3981744832
    6      N       0.8379687110     1.4626302129    -0.4195799834
    7      H       2.2828752363     0.1726278354     0.5536640370
    8      H       1.2222758934    -1.9943866245    -0.2988227385
    9      H      -1.1395506244    -1.1004765774    -1.7787841263
   10      H      -2.0650569088     0.2854232602     0.6192402681
   11      H      -1.0208768006     2.2504728010    -0.8954714745
   12      C       0.1461590139    -0.3436761721     1.0535232001
   13      H       0.1520795229    -0.6460338548     2.0965136255
 ----------------------------------------------------------------

   15    -286.8383383834      6.67E-09 Convergence criterion met
 Total energy in the final basis set = -286.83833838
 Final energy is   -286.838338383371
 **  OPTIMIZATION CONVERGED  **

                    Orbital Energies (a.u.)
 --------------------------------------------------------------

 Alpha MOs
 -- Occupied --
-14.320 -10.224 -10.220 -10.210 -10.209 -10.208 -10.206  -0.968
 -0.856  -0.749  -0.664  -0.606  -0.571  -0.535  -0.517  -0.467
 -0.439  -0.405  -0.400  -0.356  -0.336  -0.299  -0.274  -0.256
 -0.182

 Beta MOs
 -- Occupied --
-14.319 -10.222 -10.219 -10.211 -10.209 -10.207 -10.193  -0.964
 -0.850  -0.741  -0.652  -0.602  -0.567  -0.528  -0.511  -0.461
 -0.434  -0.402  -0.393  -0.348  -0.332  -0.292  -0.262  -0.250

          Ground-State Mulliken Net Atomic Charges

     Atom                 Charge (a.u.)    Spin (a.u.)
  --------------------------------------------------------
      1 C                    -0.019023       0.098250
      2 C                    -0.163831      -0.096264
      3 C                    -0.066215       0.887754
      4 C                    -0.258114      -0.065730
      5 C                     0.088763       0.048066
      6 N                    -0.342273       0.038451
      7 H                     0.151412       0.002793
      8 H                     0.147245       0.005270
      9 H                     0.136244      -0.019206
     10 H                     0.142825       0.022777
     11 H                     0.143042       0.001320
     12 C                    -0.108148       0.077245
     13 H                     0.148073      -0.000726
  --------------------------------------------------------
  Sum of atomic charges =    -0.000000

                    Cartesian Multipole Moments
 -----------------------------------------------------------------
    Charge (ESU x 10^10)
                -0.0000
    Dipole Moment (Debye)
         X      -1.1630      Y      -1.4424      Z       0.8715
       Tot       2.0476
    Quadrupole Moments (Debye-Ang)
        XX     -38.8040     XY      -4.9518     YY     -43.0418
        XZ       2.2778     YZ       0.6563     ZZ     -39.4786

 Total job time:  54.15s(wall), 155.03s(cpu)
        *  Thank you very much for using Q-Chem.  Have a nice day.  *
