 Q-Chem 5.0, Q-Chem, Inc., Pleasanton, CA (2017)
 Q-Chem 5.0.2 for Intel X86 EM64T Linux

User input:
--------------------------------------------------------------
$molecule
0 2
C        1.2841770215    0.2519816313    0.3068898234
C        0.6101874233   -1.0283083446   -0.2034213852
C       -0.6731870122   -0.5597654441   -0.8622264527
C       -1.0828414681    0.1922614134    0.3477064689
C       -0.4548607346    1.2494469185   -0.5497043465
N        0.8605496073    1.4273102017   -0.3936630247
H        2.3062768165    0.2052593698    0.6675861793
H        1.1482654082   -1.9520512721   -0.3839651619
H       -1.2057987777   -0.8824166913   -1.7475171929
H       -2.0855199889    0.3120003516    0.7521310025
H       -1.0544026154    1.9150041388   -1.1618313486
C        0.1484370629   -0.3867328517    1.1015058891
H        0.1949371733   -0.7479061882    2.1233562455
$end

$rem
method                b3lyp
basis                 6-31+g(d,p)
unrestricted          true
symmetry              off
sym_ignore            true
incdft                false
incfock               0
scf_convergence       8
thresh                14
jobtype               ts
scf_guess             read
scf_algorithm         diis
max_scf_cycles        100
geom_opt_max_cycles   500
geom_opt_dmax         100
geom_opt_tol_gradient 10
geom_opt_hessian      read
$end

--------------------------------------------------------------

    2    -286.8367237971      6.87E-10 Convergence criterion met
 Total energy in the final basis set = -286.83672380
   12    -286.8367502437      5.01E-09 Convergence criterion met
 Total energy in the final basis set = -286.83675024

             Standard Nuclear Orientation (Angstroms)
    I     Atom           X                Y                Z
 ----------------------------------------------------------------
    1      C       1.2863706972     0.2499780317     0.3085573827
    2      C       0.6118606183    -1.0280428952    -0.2044832089
    3      C      -0.6728283958    -0.5580226344    -0.8629919161
    4      C      -1.0834210191     0.1927783471     0.3485165640
    5      C      -0.4579181605     1.2479576470    -0.5533558311
    6      N       0.8589669430     1.4247191284    -0.3907885441
    7      H       2.3078459469     0.2047243326     0.6683105829
    8      H       1.1483682638    -1.9516392569    -0.3864807331
    9      H      -1.2058037188    -0.8822000330    -1.7470576627
   10      H      -2.0853299112     0.3131586124     0.7524359212
   11      H      -1.0554546829     1.9156679427    -1.1633711254
   12      C       0.1484146538    -0.3862046688     1.1031097035
   13      H       0.1951486813    -0.7467913205     2.1244455634
 ----------------------------------------------------------------

    8    -286.8367502461      3.30E-09 Convergence criterion met
 Total energy in the final basis set = -286.83675025
 Final energy is   -286.836750246052
 **  OPTIMIZATION CONVERGED  **

                    Orbital Energies (a.u.)
 --------------------------------------------------------------

 Alpha MOs
 -- Occupied --
-14.336 -10.230 -10.230 -10.225 -10.220 -10.216 -10.214  -0.990
 -0.853  -0.786  -0.664  -0.603  -0.582  -0.549  -0.537  -0.456
 -0.451  -0.418  -0.414  -0.387  -0.350  -0.293  -0.278  -0.256
 -0.202

 Beta MOs
 -- Occupied --
-14.325 -10.232 -10.226 -10.222 -10.220 -10.215 -10.214  -0.980
 -0.837  -0.781  -0.654  -0.601  -0.577  -0.543  -0.532  -0.453
 -0.445  -0.411  -0.403  -0.378  -0.338  -0.287  -0.265  -0.241

          Ground-State Mulliken Net Atomic Charges

     Atom                 Charge (a.u.)    Spin (a.u.)
  --------------------------------------------------------
      1 C                    -0.276076      -0.019321
      2 C                    -0.023855      -0.031932
      3 C                    -0.139767       0.560994
      4 C                     0.042713      -0.025380
      5 C                    -0.239095      -0.147534
      6 N                    -0.110810       0.576598
      7 H                     0.140792       0.000725
      8 H                     0.134588      -0.000700
      9 H                     0.140740      -0.023165
     10 H                     0.130693       0.012015
     11 H                     0.141073       0.003599
     12 C                    -0.071514       0.098590
     13 H                     0.130517      -0.004488
  --------------------------------------------------------
  Sum of atomic charges =    -0.000000

                    Cartesian Multipole Moments
 -----------------------------------------------------------------
    Charge (ESU x 10^10)
                -0.0000
    Dipole Moment (Debye)
         X      -1.6435      Y      -2.1527      Z       0.6857
       Tot       2.7938
    Quadrupole Moments (Debye-Ang)
        XX     -39.2546     XY      -4.8464     YY     -44.9446
        XZ       2.7993     YZ       0.8056     ZZ     -40.1217

 Total job time:  51.81s(wall), 170.07s(cpu)
        *  Thank you very much for using Q-Chem.  Have a nice day.  *
