 Q-Chem 5.0, Q-Chem, Inc., Pleasanton, CA (2017)
 Q-Chem 5.0.2 for Intel X86 EM64T Linux

User input:
--------------------------------------------------------------
$molecule
0 2
C        1.2841770215    0.2519816313    0.3068898234
C        0.6101874233   -1.0283083446   -0.2034213852
C       -0.6731870122   -0.5597654441   -0.8622264527
C       -1.0828414681    0.1922614134    0.3477064689
C       -0.4548607346    1.2494469185   -0.5497043465
N        0.8605496073    1.4273102017   -0.3936630247
H        2.3062768165    0.2052593698    0.6675861793
H        1.1482654082   -1.9520512721   -0.3839651619
H       -1.2057987777   -0.8824166913   -1.7475171929
H       -2.0855199889    0.3120003516    0.7521310025
H       -1.0544026154    1.9150041388   -1.1618313486
C        0.1484370629   -0.3867328517    1.1015058891
H        0.1949371733   -0.7479061882    2.1233562455
$end

$rem
method                b3lyp
basis                 6-31g(d)
unrestricted          true
symmetry              off
sym_ignore            true
incdft                false
incfock               0
scf_convergence       6
thresh                14
jobtype               sp
scf_guess             read
scf_algorithm         diis
max_scf_cycles        100
stability_analysis    true
max_cis_cycles        100
cis_n_roots           4
$end

--------------------------------------------------------------

             Standard Nuclear Orientation (Angstroms)
    I     Atom           X                Y                Z
 ----------------------------------------------------------------
    1      C       1.2841770215     0.2519816313     0.3068898234
    2      C       0.6101874233    -1.0283083446    -0.2034213852
    3      C      -0.6731870122    -0.5597654441    -0.8622264527
    4      C      -1.0828414681     0.1922614134     0.3477064689
    5      C      -0.4548607346     1.2494469185    -0.5497043465
    6      N       0.8605496073     1.4273102017    -0.3936630247
    7      H       2.3062768165     0.2052593698     0.6675861793
    8      H       1.1482654082    -1.9520512721    -0.3839651619
    9      H      -1.2057987777    -0.8824166913    -1.7475171929
   10      H      -2.0855199889     0.3120003516     0.7521310025
   11      H      -1.0544026154     1.9150041388    -1.1618313486
   12      C       0.1484370629    -0.3867328517     1.1015058891
   13      H       0.1949371733    -0.7479061882     2.1233562455
 ----------------------------------------------------------------

    2    -286.8156760706      2.59E-09 Convergence criterion met
 Total energy in the final basis set = -286.81567607

         TDDFT/TDA Excitation Energies
 ---------------------------------------------------

 Excited state   1: excitation energy (eV) =    2.6670
 Total energy for state  1:                  -286.71766545 au
    <S**2>     :  0.7683
    Trans. Mom.:  0.3075 X   0.1812 Y   0.0570 Z
    Strength   :     0.0085354515
    S(  1) --> V(  1) amplitude =  0.1703 alpha
    D( 23) --> S(  1) amplitude = -0.2328 beta
    D( 24) --> S(  1) amplitude =  0.9448 beta

 Excited state   2: excitation energy (eV) =    2.9899
 Total energy for state  2:                  -286.70580083 au
    <S**2>     :  0.7911
    Trans. Mom.:  0.0679 X   0.0720 Y  -0.0254 Z
    Strength   :     0.0007649961
    D( 22) --> S(  1) amplitude = -0.1760 beta
    D( 23) --> S(  1) amplitude =  0.9437 beta
    D( 24) --> S(  1) amplitude =  0.2445 beta

 Excited state   3: excitation energy (eV) =    3.9919
 Total energy for state  3:                  -286.66897602 au
    <S**2>     :  0.7888
    Trans. Mom.: -0.1343 X   0.1042 Y  -0.1715 Z
    Strength   :     0.0057025550
    D( 22) --> S(  1) amplitude =  0.9738 beta
    D( 23) --> S(  1) amplitude =  0.1916 beta

 Excited state   4: excitation energy (eV) =    5.1730
 Total energy for state  4:                  -286.62557148 au
    <S**2>     :  0.7918
    Trans. Mom.:  0.0128 X  -0.0215 Y  -0.0603 Z
    Strength   :     0.0005395203
    S(  1) --> V(  1) amplitude =  0.5790 alpha
    D( 21) --> S(  1) amplitude =  0.7858 beta

 ---------------------------------------------------

                    Orbital Energies (a.u.)
 --------------------------------------------------------------

 Alpha MOs
 -- Occupied --
-14.321 -10.219 -10.219 -10.215 -10.211 -10.206 -10.204  -0.979
 -0.843  -0.776  -0.655  -0.594  -0.573  -0.542  -0.530  -0.448
 -0.443  -0.409  -0.404  -0.377  -0.341  -0.283  -0.267  -0.245
 -0.190

 Beta MOs
 -- Occupied --
-14.310 -10.221 -10.216 -10.212 -10.210 -10.205 -10.204  -0.970
 -0.827  -0.771  -0.645  -0.591  -0.568  -0.536  -0.524  -0.445
 -0.437  -0.401  -0.394  -0.368  -0.328  -0.277  -0.253  -0.230

          Ground-State Mulliken Net Atomic Charges

     Atom                 Charge (a.u.)    Spin (a.u.)
  --------------------------------------------------------
      1 C                    -0.046233      -0.030277
      2 C                    -0.137756       0.001236
      3 C                    -0.109156       0.519375
      4 C                    -0.176725       0.014665
      5 C                     0.002253      -0.148828
      6 N                    -0.314024       0.571518
      7 H                     0.147974       0.000539
      8 H                     0.144742      -0.000859
      9 H                     0.152017      -0.024538
     10 H                     0.144631       0.011377
     11 H                     0.148674       0.004078
     12 C                    -0.100022       0.086376
     13 H                     0.143625      -0.004661
  --------------------------------------------------------
  Sum of atomic charges =    -0.000000

                    Cartesian Multipole Moments
 -----------------------------------------------------------------
    Charge (ESU x 10^10)
                -0.0000
    Dipole Moment (Debye)
         X      -1.5181      Y      -1.9733      Z       0.5752
       Tot       2.5553
    Quadrupole Moments (Debye-Ang)
        XX     -38.3937     XY      -4.2691     YY     -43.3566
        XZ       2.6213     YZ       0.6857     ZZ     -39.0381

 Total job time:  83.24s(wall), 79.10s(cpu)
        *  Thank you very much for using Q-Chem.  Have a nice day.  *
