 Q-Chem 5.0, Q-Chem, Inc., Pleasanton, CA (2017)
 Q-Chem 5.0.2 for Intel X86 EM64T Linux

User input:
--------------------------------------------------------------
$molecule
0 2
C        1.2863706972    0.2499780317    0.3085573827
C        0.6118606183   -1.0280428952   -0.2044832089
C       -0.6728283958   -0.5580226344   -0.8629919161
C       -1.0834210191    0.1927783471    0.3485165640
C       -0.4579181605    1.2479576470   -0.5533558311
N        0.8589669430    1.4247191284   -0.3907885441
H        2.3078459469    0.2047243326    0.6683105829
H        1.1483682638   -1.9516392569   -0.3864807331
H       -1.2058037188   -0.8822000330   -1.7470576627
H       -2.0853299112    0.3131586124    0.7524359212
H       -1.0554546829    1.9156679427   -1.1633711254
C        0.1484146538   -0.3862046688    1.1031097035
H        0.1951486813   -0.7467913205    2.1244455634
$end

$rem
method                b3lyp
basis                 6-31+g(d,p)
unrestricted          true
symmetry              off
sym_ignore            true
incdft                false
incfock               0
scf_convergence       6
thresh                14
jobtype               sp
scf_guess             read
scf_algorithm         diis
max_scf_cycles        100
stability_analysis    true
max_cis_cycles        100
cis_n_roots           4
$end

--------------------------------------------------------------

             Standard Nuclear Orientation (Angstroms)
    I     Atom           X                Y                Z
 ----------------------------------------------------------------
    1      C       1.2863706972     0.2499780317     0.3085573827
    2      C       0.6118606183    -1.0280428952    -0.2044832089
    3      C      -0.6728283958    -0.5580226344    -0.8629919161
    4      C      -1.0834210191     0.1927783471     0.3485165640
    5      C      -0.4579181605     1.2479576470    -0.5533558311
    6      N       0.8589669430     1.4247191284    -0.3907885441
    7      H       2.3078459469     0.2047243326     0.6683105829
    8      H       1.1483682638    -1.9516392569    -0.3864807331
    9      H      -1.2058037188    -0.8822000330    -1.7470576627
   10      H      -2.0853299112     0.3131586124     0.7524359212
   11      H      -1.0554546829     1.9156679427    -1.1633711254
   12      C       0.1484146538    -0.3862046688     1.1031097035
   13      H       0.1951486813    -0.7467913205     2.1244455634
 ----------------------------------------------------------------

    2    -286.8367502460      1.28E-09 Convergence criterion met
 Total energy in the final basis set = -286.83675025

         TDDFT/TDA Excitation Energies
 ---------------------------------------------------

 Excited state   1: excitation energy (eV) =    2.6039
 Total energy for state  1:                  -286.74106019 au
    <S**2>     :  0.7683
    Trans. Mom.:  0.3335 X   0.1979 Y   0.0594 Z
    Strength   :     0.0098190085
    D( 23) --> S(  1) amplitude = -0.1697 beta
    D( 24) --> S(  1) amplitude =  0.9591 beta

 Excited state   2: excitation energy (eV) =    2.9533
 Total energy for state  2:                  -286.72821817 au
    <S**2>     :  0.7892
    Trans. Mom.:  0.0300 X   0.0638 Y  -0.0161 Z
    Strength   :     0.0003783996
    D( 22) --> S(  1) amplitude =  0.2052 beta
    D( 23) --> S(  1) amplitude =  0.9507 beta
    D( 24) --> S(  1) amplitude =  0.1845 beta

 Excited state   3: excitation energy (eV) =    3.8752
 Total energy for state  3:                  -286.69434044 au
    <S**2>     :  0.7894
    Trans. Mom.:  0.1421 X  -0.1012 Y   0.1782 Z
    Strength   :     0.0059058017
    D( 22) --> S(  1) amplitude =  0.9677 beta
    D( 23) --> S(  1) amplitude = -0.2169 beta

 Excited state   4: excitation energy (eV) =    4.6569
 Total energy for state  4:                  -286.66561107 au
    <S**2>     :  0.8224
    Trans. Mom.:  0.0293 X  -0.1410 Y  -0.0792 Z
    Strength   :     0.0030833609
    S(  1) --> V(  1) amplitude =  0.9810 alpha
    S(  1) --> V(  2) amplitude =  0.1574 alpha

 ---------------------------------------------------

                    Orbital Energies (a.u.)
 --------------------------------------------------------------

 Alpha MOs
 -- Occupied --
-14.336 -10.230 -10.230 -10.225 -10.220 -10.216 -10.214  -0.990
 -0.853  -0.786  -0.664  -0.603  -0.582  -0.549  -0.537  -0.456
 -0.451  -0.418  -0.414  -0.387  -0.350  -0.293  -0.278  -0.256
 -0.202

 Beta MOs
 -- Occupied --
-14.325 -10.232 -10.226 -10.222 -10.220 -10.215 -10.214  -0.980
 -0.837  -0.781  -0.654  -0.601  -0.577  -0.543  -0.532  -0.453
 -0.445  -0.411  -0.403  -0.378  -0.338  -0.287  -0.265  -0.241

          Ground-State Mulliken Net Atomic Charges

     Atom                 Charge (a.u.)    Spin (a.u.)
  --------------------------------------------------------
      1 C                    -0.276076      -0.019321
      2 C                    -0.023855      -0.031932
      3 C                    -0.139767       0.560993
      4 C                     0.042713      -0.025380
      5 C                    -0.239095      -0.147534
      6 N                    -0.110810       0.576598
      7 H                     0.140792       0.000725
      8 H                     0.134588      -0.000700
      9 H                     0.140740      -0.023165
     10 H                     0.130693       0.012015
     11 H                     0.141073       0.003599
     12 C                    -0.071514       0.098590
     13 H                     0.130517      -0.004488
  --------------------------------------------------------
  Sum of atomic charges =     0.000000

                    Cartesian Multipole Moments
 -----------------------------------------------------------------
    Charge (ESU x 10^10)
                 0.0000
    Dipole Moment (Debye)
         X      -1.6435      Y      -2.1527      Z       0.6857
       Tot       2.7938
    Quadrupole Moments (Debye-Ang)
        XX     -39.2546     XY      -4.8464     YY     -44.9446
        XZ       2.7993     YZ       0.8056     ZZ     -40.1217

 Total job time:  186.56s(wall), 182.66s(cpu)
        *  Thank you very much for using Q-Chem.  Have a nice day.  *
