 Q-Chem 5.0, Q-Chem, Inc., Pleasanton, CA (2017)
 Q-Chem 5.0.2 for Intel X86 EM64T Linux

User input:
--------------------------------------------------------------
$molecule
0 2
C        1.2862847909    0.2552206373    0.3161956429
C        0.6080695616   -1.0238043560   -0.2055948518
C       -0.6708830403   -0.5240082434   -0.8720136088
C       -1.0838340397    0.1926730811    0.3581692647
C       -0.4607105352    1.2136015012   -0.5850682925
N        0.8627246488    1.4247880879   -0.3851873215
H        2.3068565006    0.2088227364    0.6798802270
H        1.1491799612   -1.9445442561   -0.3910674941
H       -1.2145995802   -0.8929637967   -1.7327315279
H       -2.0866761435    0.3155356594    0.7590368338
H       -1.0471376781    1.9185772125   -1.1640851843
C        0.1446943563   -0.3924549750    1.0991307466
H        0.2022511139   -0.7553600558    2.1201822621
$end

$rem
method                b3lyp
basis                 6-31g(d)
unrestricted          true
symmetry              off
sym_ignore            true
incdft                false
incfock               0
scf_convergence       8
thresh                14
jobtype               ts
scf_guess             read
scf_algorithm         diis
max_scf_cycles        100
geom_opt_max_cycles   500
geom_opt_dmax         100
geom_opt_tol_gradient 10
geom_opt_hessian      read
$end

--------------------------------------------------------------

    2    -286.8166613486      1.65E-10 Convergence criterion met
 Total energy in the final basis set = -286.81666135
   13    -286.8162171258      5.92E-09 Convergence criterion met
 Total energy in the final basis set = -286.81621713
   13    -286.8159027475      8.21E-09 Convergence criterion met
 Total energy in the final basis set = -286.81590275
   13    -286.8157257515      9.92E-09 Convergence criterion met
 Total energy in the final basis set = -286.81572575
   13    -286.8156759521      8.79E-09 Convergence criterion met
 Total energy in the final basis set = -286.81567595
   10    -286.8156760626      5.99E-09 Convergence criterion met
 Total energy in the final basis set = -286.81567606

             Standard Nuclear Orientation (Angstroms)
    I     Atom           X                Y                Z
 ----------------------------------------------------------------
    1      C       1.2841770215     0.2519816313     0.3068898234
    2      C       0.6101874233    -1.0283083446    -0.2034213852
    3      C      -0.6731870122    -0.5597654441    -0.8622264527
    4      C      -1.0828414681     0.1922614134     0.3477064689
    5      C      -0.4548607346     1.2494469185    -0.5497043465
    6      N       0.8605496073     1.4273102017    -0.3936630247
    7      H       2.3062768165     0.2052593698     0.6675861793
    8      H       1.1482654082    -1.9520512721    -0.3839651619
    9      H      -1.2057987777    -0.8824166913    -1.7475171929
   10      H      -2.0855199889     0.3120003516     0.7521310025
   11      H      -1.0544026154     1.9150041388    -1.1618313486
   12      C       0.1484370629    -0.3867328517     1.1015058891
   13      H       0.1949371733    -0.7479061882     2.1233562455
 ----------------------------------------------------------------

    7    -286.8156760706      9.42E-09 Convergence criterion met
 Total energy in the final basis set = -286.81567607
 Final energy is   -286.815676070637
 **  OPTIMIZATION CONVERGED  **

                    Orbital Energies (a.u.)
 --------------------------------------------------------------

 Alpha MOs
 -- Occupied --
-14.321 -10.219 -10.219 -10.215 -10.211 -10.206 -10.204  -0.979
 -0.843  -0.776  -0.655  -0.594  -0.573  -0.542  -0.530  -0.448
 -0.443  -0.409  -0.404  -0.377  -0.341  -0.283  -0.267  -0.245
 -0.190

 Beta MOs
 -- Occupied --
-14.310 -10.221 -10.216 -10.212 -10.210 -10.205 -10.204  -0.970
 -0.827  -0.771  -0.645  -0.591  -0.568  -0.536  -0.524  -0.445
 -0.437  -0.401  -0.394  -0.368  -0.328  -0.277  -0.253  -0.230

          Ground-State Mulliken Net Atomic Charges

     Atom                 Charge (a.u.)    Spin (a.u.)
  --------------------------------------------------------
      1 C                    -0.046234      -0.030278
      2 C                    -0.137756       0.001236
      3 C                    -0.109156       0.519374
      4 C                    -0.176724       0.014665
      5 C                     0.002253      -0.148829
      6 N                    -0.314024       0.571519
      7 H                     0.147974       0.000539
      8 H                     0.144742      -0.000860
      9 H                     0.152017      -0.024538
     10 H                     0.144631       0.011377
     11 H                     0.148674       0.004078
     12 C                    -0.100022       0.086377
     13 H                     0.143625      -0.004661
  --------------------------------------------------------
  Sum of atomic charges =    -0.000000

                    Cartesian Multipole Moments
 -----------------------------------------------------------------
    Charge (ESU x 10^10)
                 0.0000
    Dipole Moment (Debye)
         X      -1.5181      Y      -1.9733      Z       0.5752
       Tot       2.5553
    Quadrupole Moments (Debye-Ang)
        XX     -38.3937     XY      -4.2691     YY     -43.3566
        XZ       2.6213     YZ       0.6857     ZZ     -39.0381

 Total job time:  77.63s(wall), 242.42s(cpu)
        *  Thank you very much for using Q-Chem.  Have a nice day.  *
