 Q-Chem 5.0, Q-Chem, Inc., Pleasanton, CA (2017)
 Q-Chem 5.0.2 for Intel X86 EM64T Linux

User input:
--------------------------------------------------------------
$molecule
0 2
C        1.2862847909    0.2552206373    0.3161956429
C        0.6080695616   -1.0238043560   -0.2055948518
C       -0.6708830403   -0.5240082434   -0.8720136088
C       -1.0838340397    0.1926730811    0.3581692647
C       -0.4607105352    1.2136015012   -0.5850682925
N        0.8627246488    1.4247880879   -0.3851873215
H        2.3068565006    0.2088227364    0.6798802270
H        1.1491799612   -1.9445442561   -0.3910674941
H       -1.2145995802   -0.8929637967   -1.7327315279
H       -2.0866761435    0.3155356594    0.7590368338
H       -1.0471376781    1.9185772125   -1.1640851843
C        0.1446943563   -0.3924549750    1.0991307466
H        0.2022511139   -0.7553600558    2.1201822621
$end

$rem
method                b3lyp
basis                 6-31g(d)
unrestricted          true
symmetry              off
sym_ignore            true
incdft                false
incfock               0
scf_convergence       8
thresh                14
jobtype               freq
scf_guess             read
scf_algorithm         diis
max_scf_cycles        100
$end

--------------------------------------------------------------

             Standard Nuclear Orientation (Angstroms)
    I     Atom           X                Y                Z
 ----------------------------------------------------------------
    1      C       1.2862847909     0.2552206373     0.3161956429
    2      C       0.6080695616    -1.0238043560    -0.2055948518
    3      C      -0.6708830403    -0.5240082434    -0.8720136088
    4      C      -1.0838340397     0.1926730811     0.3581692647
    5      C      -0.4607105352     1.2136015012    -0.5850682925
    6      N       0.8627246488     1.4247880879    -0.3851873215
    7      H       2.3068565006     0.2088227364     0.6798802270
    8      H       1.1491799612    -1.9445442561    -0.3910674941
    9      H      -1.2145995802    -0.8929637967    -1.7327315279
   10      H      -2.0866761435     0.3155356594     0.7590368338
   11      H      -1.0471376781     1.9185772125    -1.1640851843
   12      C       0.1446943563    -0.3924549750     1.0991307466
   13      H       0.2022511139    -0.7553600558     2.1201822621
 ----------------------------------------------------------------

    2    -286.8166613486      1.17E-09 Convergence criterion met
 Total energy in the final basis set = -286.81666135

                    Orbital Energies (a.u.)
 --------------------------------------------------------------

 Alpha MOs
 -- Occupied --
-14.326 -10.219 -10.217 -10.215 -10.210 -10.206 -10.204  -0.981
 -0.842  -0.780  -0.653  -0.593  -0.572  -0.542  -0.530  -0.449
 -0.439  -0.411  -0.402  -0.380  -0.341  -0.280  -0.268  -0.246
 -0.196

 Beta MOs
 -- Occupied --
-14.313 -10.221 -10.216 -10.212 -10.209 -10.205 -10.204  -0.971
 -0.822  -0.775  -0.645  -0.591  -0.567  -0.536  -0.525  -0.447
 -0.434  -0.398  -0.394  -0.371  -0.327  -0.274  -0.254  -0.232

          Ground-State Mulliken Net Atomic Charges

     Atom                 Charge (a.u.)    Spin (a.u.)
  --------------------------------------------------------
      1 C                    -0.048793      -0.051537
      2 C                    -0.132534       0.031645
      3 C                    -0.118991       0.373441
      4 C                    -0.157184       0.039204
      5 C                    -0.016737      -0.137061
      6 N                    -0.300816       0.670785
      7 H                     0.148293       0.000723
      8 H                     0.144423      -0.002013
      9 H                     0.150045      -0.016783
     10 H                     0.143905       0.006618
     11 H                     0.149393       0.002899
     12 C                    -0.104040       0.086781
     13 H                     0.143036      -0.004702
  --------------------------------------------------------
  Sum of atomic charges =    -0.000000

                    Cartesian Multipole Moments
 -----------------------------------------------------------------
    Charge (ESU x 10^10)
                -0.0000
    Dipole Moment (Debye)
         X      -1.4201      Y      -1.9402      Z       0.5836
       Tot       2.4742
    Quadrupole Moments (Debye-Ang)
        XX     -38.3955     XY      -4.1808     YY     -43.1909
        XZ       2.5183     YZ       0.6411     ZZ     -39.1069

 Frequency:      -546.70                 466.75                 572.50
 Force Cnst:      1.5919                 0.7440                 0.5974
 Red. Mass:       9.0399                 5.7959                 3.0935
 IR Intens:        9.129                  3.020                  1.764
 Frequency:       663.56                 718.98                 746.86
 Force Cnst:      0.3543                 1.5932                 0.5853
 Red. Mass:       1.3659                 5.2312                 1.7809
 IR Intens:        4.068                  1.119                 12.909
 Frequency:       757.69                 789.15                 807.33
 Force Cnst:      1.4939                 1.3403                 0.9339
 Red. Mass:       4.4167                 3.6528                 2.4319
 IR Intens:        9.996                 14.856                 10.209
 Frequency:       847.39                 888.30                 910.00
 Force Cnst:      0.7590                 0.8920                 0.6280
 Red. Mass:       1.7939                 1.9186                 1.2872
 IR Intens:        8.238                 21.367                  5.855
 Frequency:       932.94                 971.57                 976.16
 Force Cnst:      0.9042                 0.9606                 0.8231
 Red. Mass:       1.7633                 1.7273                 1.4660
 IR Intens:        0.130                  1.025                  3.708
 Frequency:      1002.03                1041.61                1049.60
 Force Cnst:      0.9813                 0.8943                 2.1817
 Red. Mass:       1.6588                 1.3991                 3.3612
 IR Intens:        1.800                  1.541                  1.677
 Frequency:      1057.20                1145.58                1211.62
 Force Cnst:      1.0935                 1.7888                 1.1518
 Red. Mass:       1.6605                 2.3134                 1.3317
 IR Intens:        1.680                  0.076                  0.170
 Frequency:      1236.13                1256.43                1282.70
 Force Cnst:      1.9024                 1.9937                 2.5525
 Red. Mass:       2.1131                 2.1435                 2.6330
 IR Intens:        1.313                  5.387                  5.517
 Frequency:      1295.98                1345.89                1372.98
 Force Cnst:      1.7767                 2.5305                 2.0857
 Red. Mass:       1.7954                 2.3711                 1.8779
 IR Intens:        8.931                  6.670                  0.625
 Frequency:      3182.58                3209.66                3220.69
 Force Cnst:      6.5174                 6.6326                 6.6680
 Red. Mass:       1.0921                 1.0927                 1.0911
 IR Intens:       15.365                 15.260                  7.464
 Frequency:      3228.87                3230.94                3248.16
 Force Cnst:      6.7101                 6.7406                 6.8233
 Red. Mass:       1.0924                 1.0959                 1.0977
 IR Intens:       26.424                  5.902                  5.792

 STANDARD THERMODYNAMIC QUANTITIES AT   298.15 K  AND     1.00 ATM

   This Molecule has  1 Imaginary Frequencies
   Zero point vibrational energy:       63.856 kcal/mol

   Atom    1 Element C  Has Mass   12.00000
   Atom    2 Element C  Has Mass   12.00000
   Atom    3 Element C  Has Mass   12.00000
   Atom    4 Element C  Has Mass   12.00000
   Atom    5 Element C  Has Mass   12.00000
   Atom    6 Element N  Has Mass   14.00307
   Atom    7 Element H  Has Mass    1.00783
   Atom    8 Element H  Has Mass    1.00783
   Atom    9 Element H  Has Mass    1.00783
   Atom   10 Element H  Has Mass    1.00783
   Atom   11 Element H  Has Mass    1.00783
   Atom   12 Element C  Has Mass   12.00000
   Atom   13 Element H  Has Mass    1.00783
   Molecular Mass:    92.050050 amu
   Principal axes and moments of inertia in amu*Bohr^2:
                             1           2           3
    Eigenvalues --      386.52429   398.32390   531.53305
          X              -0.19128     0.93826    -0.28824
          Y               0.90184     0.28392     0.32570
          Z              -0.38743     0.19765     0.90046
   Rotational Symmetry Number is   1
   The Molecule is an Asymmetric Top
   Translational Enthalpy:        0.889 kcal/mol
   Rotational Enthalpy:           0.889 kcal/mol
   Vibrational Enthalpy:         64.822 kcal/mol
   gas constant (RT):             0.592 kcal/mol
   Translational Entropy:        39.471  cal/mol.K
   Rotational Entropy:           25.906  cal/mol.K
   Vibrational Entropy:           4.165  cal/mol.K

   Total Enthalpy:               67.192 kcal/mol
   Total Entropy:                69.542  cal/mol.K

 Total job time:  260.79s(wall), 258.17s(cpu)
        *  Thank you very much for using Q-Chem.  Have a nice day.  *
