 Q-Chem 5.0, Q-Chem, Inc., Pleasanton, CA (2017)
 Q-Chem 5.0.2 for Intel X86 EM64T Linux

User input:
--------------------------------------------------------------
$molecule
0 2
C        1.2841770215    0.2519816313    0.3068898234
C        0.6101874233   -1.0283083446   -0.2034213852
C       -0.6731870122   -0.5597654441   -0.8622264527
C       -1.0828414681    0.1922614134    0.3477064689
C       -0.4548607346    1.2494469185   -0.5497043465
N        0.8605496073    1.4273102017   -0.3936630247
H        2.3062768165    0.2052593698    0.6675861793
H        1.1482654082   -1.9520512721   -0.3839651619
H       -1.2057987777   -0.8824166913   -1.7475171929
H       -2.0855199889    0.3120003516    0.7521310025
H       -1.0544026154    1.9150041388   -1.1618313486
C        0.1484370629   -0.3867328517    1.1015058891
H        0.1949371733   -0.7479061882    2.1233562455
$end

$rem
method                b3lyp
basis                 6-31+g(d,p)
unrestricted          true
symmetry              off
sym_ignore            true
incdft                false
incfock               0
scf_convergence       8
thresh                14
jobtype               freq
scf_guess             read
scf_algorithm         diis
max_scf_cycles        100
$end

--------------------------------------------------------------

             Standard Nuclear Orientation (Angstroms)
    I     Atom           X                Y                Z
 ----------------------------------------------------------------
    1      C       1.2841770215     0.2519816313     0.3068898234
    2      C       0.6101874233    -1.0283083446    -0.2034213852
    3      C      -0.6731870122    -0.5597654441    -0.8622264527
    4      C      -1.0828414681     0.1922614134     0.3477064689
    5      C      -0.4548607346     1.2494469185    -0.5497043465
    6      N       0.8605496073     1.4273102017    -0.3936630247
    7      H       2.3062768165     0.2052593698     0.6675861793
    8      H       1.1482654082    -1.9520512721    -0.3839651619
    9      H      -1.2057987777    -0.8824166913    -1.7475171929
   10      H      -2.0855199889     0.3120003516     0.7521310025
   11      H      -1.0544026154     1.9150041388    -1.1618313486
   12      C       0.1484370629    -0.3867328517     1.1015058891
   13      H       0.1949371733    -0.7479061882     2.1233562455
 ----------------------------------------------------------------

    2    -286.8367237970      2.35E-09 Convergence criterion met
 Total energy in the final basis set = -286.83672380

                    Orbital Energies (a.u.)
 --------------------------------------------------------------

 Alpha MOs
 -- Occupied --
-14.336 -10.230 -10.230 -10.225 -10.221 -10.216 -10.214  -0.990
 -0.854  -0.786  -0.664  -0.603  -0.582  -0.550  -0.537  -0.456
 -0.451  -0.418  -0.414  -0.387  -0.350  -0.293  -0.279  -0.256
 -0.202

 Beta MOs
 -- Occupied --
-14.325 -10.232 -10.226 -10.222 -10.220 -10.214 -10.214  -0.981
 -0.838  -0.781  -0.654  -0.601  -0.576  -0.544  -0.531  -0.453
 -0.446  -0.410  -0.403  -0.378  -0.338  -0.287  -0.266  -0.241

          Ground-State Mulliken Net Atomic Charges

     Atom                 Charge (a.u.)    Spin (a.u.)
  --------------------------------------------------------
      1 C                    -0.277322      -0.017448
      2 C                    -0.023143      -0.034279
      3 C                    -0.141144       0.573254
      4 C                     0.042331      -0.027803
      5 C                    -0.236332      -0.146999
      6 N                    -0.112061       0.567374
      7 H                     0.140497       0.000702
      8 H                     0.134706      -0.000634
      9 H                     0.140928      -0.023692
     10 H                     0.130888       0.012357
     11 H                     0.140637       0.003632
     12 C                    -0.070592       0.097964
     13 H                     0.130607      -0.004429
  --------------------------------------------------------
  Sum of atomic charges =     0.000000

                    Cartesian Multipole Moments
 -----------------------------------------------------------------
    Charge (ESU x 10^10)
                 0.0000
    Dipole Moment (Debye)
         X      -1.6581      Y      -2.1623      Z       0.6910
       Tot       2.8111
    Quadrupole Moments (Debye-Ang)
        XX     -39.2805     XY      -4.8268     YY     -44.9492
        XZ       2.7944     YZ       0.8150     ZZ     -40.1294

 Frequency:      -622.35                 469.85                 563.90
 Force Cnst:      2.0385                 0.4896                 0.5643
 Red. Mass:       8.9329                 3.7646                 3.0120
 IR Intens:        5.518                  3.874                  3.624
 Frequency:       607.66                 707.75                 734.77
 Force Cnst:      0.2895                 2.2131                 0.6097
 Red. Mass:       1.3308                 7.4987                 1.9169
 IR Intens:       15.446                  0.909                 11.443
 Frequency:       761.98                 789.61                 802.60
 Force Cnst:      1.6908                 1.1893                 0.9903
 Red. Mass:       4.9426                 3.2375                 2.6093
 IR Intens:       10.454                 18.515                  6.980
 Frequency:       845.63                 881.77                 905.79
 Force Cnst:      0.8023                 0.6769                 0.7768
 Red. Mass:       1.9043                 1.4776                 1.6069
 IR Intens:        6.502                 25.929                 18.201
 Frequency:       923.03                 969.94                 974.63
 Force Cnst:      0.8200                 0.9795                 0.8398
 Red. Mass:       1.6335                 1.7671                 1.5005
 IR Intens:        0.332                  2.264                  3.317
 Frequency:      1001.77                1046.26                1048.88
 Force Cnst:      1.0014                 0.8972                 1.9103
 Red. Mass:       1.6936                 1.3911                 2.9471
 IR Intens:        1.783                  2.355                  2.180
 Frequency:      1065.06                1139.25                1208.35
 Force Cnst:      1.1522                 1.7478                 1.1499
 Red. Mass:       1.7240                 2.2856                 1.3367
 IR Intens:        6.126                  0.315                  0.322
 Frequency:      1235.78                1246.57                1287.19
 Force Cnst:      2.7221                 1.2403                 2.0034
 Red. Mass:       3.0253                 1.3547                 2.0522
 IR Intens:        7.468                  1.907                 13.749
 Frequency:      1299.86                1339.15                1389.22
 Force Cnst:      2.3262                 2.4866                 2.7295
 Red. Mass:       2.3367                 2.3534                 2.4005
 IR Intens:        3.020                  6.226                  0.535
 Frequency:      3161.29                3200.26                3204.51
 Force Cnst:      6.4322                 6.5884                 6.5996
 Red. Mass:       1.0924                 1.0918                 1.0908
 IR Intens:       14.156                 11.666                  7.590
 Frequency:      3214.28                3216.58                3244.04
 Force Cnst:      6.6509                 6.6878                 6.8010
 Red. Mass:       1.0926                 1.0971                 1.0969
 IR Intens:       20.351                  4.175                  3.899

 STANDARD THERMODYNAMIC QUANTITIES AT   298.15 K  AND     1.00 ATM

   This Molecule has  1 Imaginary Frequencies
   Zero point vibrational energy:       63.598 kcal/mol

   Atom    1 Element C  Has Mass   12.00000
   Atom    2 Element C  Has Mass   12.00000
   Atom    3 Element C  Has Mass   12.00000
   Atom    4 Element C  Has Mass   12.00000
   Atom    5 Element C  Has Mass   12.00000
   Atom    6 Element N  Has Mass   14.00307
   Atom    7 Element H  Has Mass    1.00783
   Atom    8 Element H  Has Mass    1.00783
   Atom    9 Element H  Has Mass    1.00783
   Atom   10 Element H  Has Mass    1.00783
   Atom   11 Element H  Has Mass    1.00783
   Atom   12 Element C  Has Mass   12.00000
   Atom   13 Element H  Has Mass    1.00783
   Molecular Mass:    92.050050 amu
   Principal axes and moments of inertia in amu*Bohr^2:
                             1           2           3
    Eigenvalues --      385.72164   402.05961   534.51885
          X              -0.05430     0.95812    -0.28116
          Y               0.94133     0.14305     0.30568
          Z              -0.33310     0.24806     0.90968
   Rotational Symmetry Number is   1
   The Molecule is an Asymmetric Top
   Translational Enthalpy:        0.889 kcal/mol
   Rotational Enthalpy:           0.889 kcal/mol
   Vibrational Enthalpy:         64.591 kcal/mol
   gas constant (RT):             0.592 kcal/mol
   Translational Entropy:        39.471  cal/mol.K
   Rotational Entropy:           25.919  cal/mol.K
   Vibrational Entropy:           4.293  cal/mol.K

   Total Enthalpy:               66.961 kcal/mol
   Total Entropy:                69.683  cal/mol.K

 Total job time:  566.22s(wall), 558.67s(cpu)
        *  Thank you very much for using Q-Chem.  Have a nice day.  *
