 Q-Chem 5.0, Q-Chem, Inc., Pleasanton, CA (2017)
 Q-Chem 5.0.2 for Intel X86 EM64T Linux

User input:
--------------------------------------------------------------
$molecule
0 2
C        1.2862847909    0.2552206373    0.3161956429
C        0.6080695616   -1.0238043560   -0.2055948518
C       -0.6708830403   -0.5240082434   -0.8720136088
C       -1.0838340397    0.1926730811    0.3581692647
C       -0.4607105352    1.2136015012   -0.5850682925
N        0.8627246488    1.4247880879   -0.3851873215
H        2.3068565006    0.2088227364    0.6798802270
H        1.1491799612   -1.9445442561   -0.3910674941
H       -1.2145995802   -0.8929637967   -1.7327315279
H       -2.0866761435    0.3155356594    0.7590368338
H       -1.0471376781    1.9185772125   -1.1640851843
C        0.1446943563   -0.3924549750    1.0991307466
H        0.2022511139   -0.7553600558    2.1201822621
$end

$rem
method                b3lyp
basis                 6-31g(d)
unrestricted          true
symmetry              off
sym_ignore            true
incdft                false
incfock               0
scf_convergence       6
thresh                14
jobtype               sp
scf_guess             read
scf_algorithm         diis
max_scf_cycles        100
stability_analysis    true
max_cis_cycles        100
cis_n_roots           4
$end

--------------------------------------------------------------

             Standard Nuclear Orientation (Angstroms)
    I     Atom           X                Y                Z
 ----------------------------------------------------------------
    1      C       1.2862847909     0.2552206373     0.3161956429
    2      C       0.6080695616    -1.0238043560    -0.2055948518
    3      C      -0.6708830403    -0.5240082434    -0.8720136088
    4      C      -1.0838340397     0.1926730811     0.3581692647
    5      C      -0.4607105352     1.2136015012    -0.5850682925
    6      N       0.8627246488     1.4247880879    -0.3851873215
    7      H       2.3068565006     0.2088227364     0.6798802270
    8      H       1.1491799612    -1.9445442561    -0.3910674941
    9      H      -1.2145995802    -0.8929637967    -1.7327315279
   10      H      -2.0866761435     0.3155356594     0.7590368338
   11      H      -1.0471376781     1.9185772125    -1.1640851843
   12      C       0.1446943563    -0.3924549750     1.0991307466
   13      H       0.2022511139    -0.7553600558     2.1201822621
 ----------------------------------------------------------------

    2    -286.8166613486      1.82E-09 Convergence criterion met
 Total energy in the final basis set = -286.81666135

         TDDFT/TDA Excitation Energies
 ---------------------------------------------------

 Excited state   1: excitation energy (eV) =    2.6959
 Total energy for state  1:                  -286.71758959 au
    <S**2>     :  0.7754
    Trans. Mom.:  0.2718 X   0.1429 Y   0.0666 Z
    Strength   :     0.0065186372
    D( 23) --> S(  1) amplitude = -0.5028 beta
    D( 24) --> S(  1) amplitude =  0.8359 beta

 Excited state   2: excitation energy (eV) =    2.8715
 Total energy for state  2:                  -286.71113711 au
    <S**2>     :  0.7777
    Trans. Mom.:  0.1420 X   0.1009 Y   0.0206 Z
    Strength   :     0.0021649742
    D( 22) --> S(  1) amplitude =  0.1652 beta
    D( 23) --> S(  1) amplitude =  0.8281 beta
    D( 24) --> S(  1) amplitude =  0.5187 beta

 Excited state   3: excitation energy (eV) =    3.8874
 Total energy for state  3:                  -286.67380290 au
    <S**2>     :  0.7859
    Trans. Mom.:  0.1663 X  -0.0926 Y   0.1686 Z
    Strength   :     0.0061601616
    D( 22) --> S(  1) amplitude =  0.9720 beta
    D( 23) --> S(  1) amplitude = -0.2082 beta

 Excited state   4: excitation energy (eV) =    5.2611
 Total energy for state  4:                  -286.62331847 au
    <S**2>     :  0.8002
    Trans. Mom.:  0.1156 X   0.1686 Y  -0.0537 Z
    Strength   :     0.0057576554
    S(  1) --> V(  1) amplitude =  0.3615 alpha
    D( 21) --> S(  1) amplitude =  0.9096 beta

 ---------------------------------------------------

                    Orbital Energies (a.u.)
 --------------------------------------------------------------

 Alpha MOs
 -- Occupied --
-14.326 -10.219 -10.217 -10.215 -10.210 -10.206 -10.204  -0.981
 -0.842  -0.780  -0.653  -0.593  -0.572  -0.542  -0.530  -0.449
 -0.439  -0.411  -0.402  -0.380  -0.341  -0.280  -0.268  -0.246
 -0.196

 Beta MOs
 -- Occupied --
-14.313 -10.221 -10.216 -10.212 -10.209 -10.205 -10.204  -0.971
 -0.822  -0.775  -0.645  -0.591  -0.567  -0.536  -0.525  -0.447
 -0.434  -0.398  -0.394  -0.371  -0.327  -0.274  -0.254  -0.232

          Ground-State Mulliken Net Atomic Charges

     Atom                 Charge (a.u.)    Spin (a.u.)
  --------------------------------------------------------
      1 C                    -0.048793      -0.051537
      2 C                    -0.132534       0.031646
      3 C                    -0.118991       0.373440
      4 C                    -0.157184       0.039205
      5 C                    -0.016737      -0.137061
      6 N                    -0.300816       0.670785
      7 H                     0.148293       0.000723
      8 H                     0.144423      -0.002013
      9 H                     0.150045      -0.016783
     10 H                     0.143905       0.006618
     11 H                     0.149393       0.002899
     12 C                    -0.104040       0.086781
     13 H                     0.143036      -0.004702
  --------------------------------------------------------
  Sum of atomic charges =    -0.000000

                    Cartesian Multipole Moments
 -----------------------------------------------------------------
    Charge (ESU x 10^10)
                -0.0000
    Dipole Moment (Debye)
         X      -1.4201      Y      -1.9402      Z       0.5836
       Tot       2.4742
    Quadrupole Moments (Debye-Ang)
        XX     -38.3955     XY      -4.1808     YY     -43.1909
        XZ       2.5183     YZ       0.6411     ZZ     -39.1069

 Total job time:  82.89s(wall), 78.73s(cpu)
        *  Thank you very much for using Q-Chem.  Have a nice day.  *
