 Q-Chem 5.0, Q-Chem, Inc., Pleasanton, CA (2017)
 Q-Chem 5.0.2 for Intel X86 EM64T Linux

User input:
--------------------------------------------------------------
$molecule
0 2
C        1.2841770215    0.2519816313    0.3068898234
C        0.6101874233   -1.0283083446   -0.2034213852
C       -0.6731870122   -0.5597654441   -0.8622264527
C       -1.0828414681    0.1922614134    0.3477064689
C       -0.4548607346    1.2494469185   -0.5497043465
N        0.8605496073    1.4273102017   -0.3936630247
H        2.3062768165    0.2052593698    0.6675861793
H        1.1482654082   -1.9520512721   -0.3839651619
H       -1.2057987777   -0.8824166913   -1.7475171929
H       -2.0855199889    0.3120003516    0.7521310025
H       -1.0544026154    1.9150041388   -1.1618313486
C        0.1484370629   -0.3867328517    1.1015058891
H        0.1949371733   -0.7479061882    2.1233562455
$end

$rem
method                b3lyp
basis                 6-31+g(d,p)
unrestricted          true
symmetry              off
sym_ignore            true
incdft                false
incfock               0
scf_convergence       8
thresh                14
jobtype               sp
scf_guess             core
scf_guess_mix         5
scf_algorithm         diis
max_scf_cycles        100
$end

--------------------------------------------------------------

             Standard Nuclear Orientation (Angstroms)
    I     Atom           X                Y                Z
 ----------------------------------------------------------------
    1      C       1.2841770215     0.2519816313     0.3068898234
    2      C       0.6101874233    -1.0283083446    -0.2034213852
    3      C      -0.6731870122    -0.5597654441    -0.8622264527
    4      C      -1.0828414681     0.1922614134     0.3477064689
    5      C      -0.4548607346     1.2494469185    -0.5497043465
    6      N       0.8605496073     1.4273102017    -0.3936630247
    7      H       2.3062768165     0.2052593698     0.6675861793
    8      H       1.1482654082    -1.9520512721    -0.3839651619
    9      H      -1.2057987777    -0.8824166913    -1.7475171929
   10      H      -2.0855199889     0.3120003516     0.7521310025
   11      H      -1.0544026154     1.9150041388    -1.1618313486
   12      C       0.1484370629    -0.3867328517     1.1015058891
   13      H       0.1949371733    -0.7479061882     2.1233562455
 ----------------------------------------------------------------

   22    -286.8367237971      6.14E-09 Convergence criterion met
 Total energy in the final basis set = -286.83672380

                    Orbital Energies (a.u.)
 --------------------------------------------------------------

 Alpha MOs
 -- Occupied --
-14.336 -10.230 -10.230 -10.225 -10.221 -10.216 -10.214  -0.990
 -0.854  -0.786  -0.664  -0.603  -0.582  -0.550  -0.537  -0.456
 -0.451  -0.418  -0.414  -0.387  -0.350  -0.293  -0.279  -0.256
 -0.202

 Beta MOs
 -- Occupied --
-14.325 -10.232 -10.226 -10.222 -10.220 -10.214 -10.214  -0.981
 -0.838  -0.781  -0.654  -0.601  -0.576  -0.544  -0.531  -0.453
 -0.446  -0.410  -0.403  -0.378  -0.338  -0.287  -0.266  -0.241

          Ground-State Mulliken Net Atomic Charges

     Atom                 Charge (a.u.)    Spin (a.u.)
  --------------------------------------------------------
      1 C                    -0.277322      -0.017448
      2 C                    -0.023143      -0.034278
      3 C                    -0.141144       0.573252
      4 C                     0.042331      -0.027803
      5 C                    -0.236332      -0.146996
      6 N                    -0.112061       0.567373
      7 H                     0.140496       0.000702
      8 H                     0.134706      -0.000634
      9 H                     0.140928      -0.023691
     10 H                     0.130888       0.012357
     11 H                     0.140637       0.003632
     12 C                    -0.070592       0.097964
     13 H                     0.130607      -0.004429
  --------------------------------------------------------
  Sum of atomic charges =     0.000000

                    Cartesian Multipole Moments
 -----------------------------------------------------------------
    Charge (ESU x 10^10)
                 0.0000
    Dipole Moment (Debye)
         X      -1.6581      Y      -2.1623      Z       0.6910
       Tot       2.8111
    Quadrupole Moments (Debye-Ang)
        XX     -39.2805     XY      -4.8268     YY     -44.9492
        XZ       2.7944     YZ       0.8150     ZZ     -40.1294

 Total job time:  33.15s(wall), 114.25s(cpu)
        *  Thank you very much for using Q-Chem.  Have a nice day.  *
