 Q-Chem 5.0, Q-Chem, Inc., Pleasanton, CA (2017)
 Q-Chem 5.0.2 for Intel X86 EM64T Linux

User input:
--------------------------------------------------------------
$molecule
0 2
C        1.2863706972    0.2499780317    0.3085573827
C        0.6118606183   -1.0280428952   -0.2044832089
C       -0.6728283958   -0.5580226344   -0.8629919161
C       -1.0834210191    0.1927783471    0.3485165640
C       -0.4579181605    1.2479576470   -0.5533558311
N        0.8589669430    1.4247191284   -0.3907885441
H        2.3078459469    0.2047243326    0.6683105829
H        1.1483682638   -1.9516392569   -0.3864807331
H       -1.2058037188   -0.8822000330   -1.7470576627
H       -2.0853299112    0.3131586124    0.7524359212
H       -1.0554546829    1.9156679427   -1.1633711254
C        0.1484146538   -0.3862046688    1.1031097035
H        0.1951486813   -0.7467913205    2.1244455634
$end

$rem
method                b3lyp
basis                 6-31+g(d,p)
unrestricted          true
symmetry              off
sym_ignore            true
incdft                false
incfock               0
scf_convergence       8
thresh                14
jobtype               freq
scf_guess             read
scf_algorithm         diis
max_scf_cycles        100
$end

--------------------------------------------------------------

             Standard Nuclear Orientation (Angstroms)
    I     Atom           X                Y                Z
 ----------------------------------------------------------------
    1      C       1.2863706972     0.2499780317     0.3085573827
    2      C       0.6118606183    -1.0280428952    -0.2044832089
    3      C      -0.6728283958    -0.5580226344    -0.8629919161
    4      C      -1.0834210191     0.1927783471     0.3485165640
    5      C      -0.4579181605     1.2479576470    -0.5533558311
    6      N       0.8589669430     1.4247191284    -0.3907885441
    7      H       2.3078459469     0.2047243326     0.6683105829
    8      H       1.1483682638    -1.9516392569    -0.3864807331
    9      H      -1.2058037188    -0.8822000330    -1.7470576627
   10      H      -2.0853299112     0.3131586124     0.7524359212
   11      H      -1.0554546829     1.9156679427    -1.1633711254
   12      C       0.1484146538    -0.3862046688     1.1031097035
   13      H       0.1951486813    -0.7467913205     2.1244455634
 ----------------------------------------------------------------

    2    -286.8367502460      3.89E-10 Convergence criterion met
 Total energy in the final basis set = -286.83675025

                    Orbital Energies (a.u.)
 --------------------------------------------------------------

 Alpha MOs
 -- Occupied --
-14.336 -10.230 -10.230 -10.225 -10.220 -10.216 -10.214  -0.990
 -0.853  -0.786  -0.664  -0.603  -0.582  -0.549  -0.537  -0.456
 -0.451  -0.418  -0.414  -0.387  -0.350  -0.293  -0.278  -0.256
 -0.202

 Beta MOs
 -- Occupied --
-14.325 -10.232 -10.226 -10.222 -10.220 -10.215 -10.214  -0.980
 -0.837  -0.781  -0.654  -0.601  -0.577  -0.543  -0.532  -0.453
 -0.445  -0.411  -0.403  -0.378  -0.338  -0.287  -0.265  -0.241

          Ground-State Mulliken Net Atomic Charges

     Atom                 Charge (a.u.)    Spin (a.u.)
  --------------------------------------------------------
      1 C                    -0.276076      -0.019321
      2 C                    -0.023855      -0.031932
      3 C                    -0.139767       0.560993
      4 C                     0.042713      -0.025380
      5 C                    -0.239095      -0.147534
      6 N                    -0.110810       0.576598
      7 H                     0.140792       0.000725
      8 H                     0.134588      -0.000700
      9 H                     0.140740      -0.023165
     10 H                     0.130693       0.012015
     11 H                     0.141073       0.003599
     12 C                    -0.071514       0.098590
     13 H                     0.130517      -0.004488
  --------------------------------------------------------
  Sum of atomic charges =     0.000000

                    Cartesian Multipole Moments
 -----------------------------------------------------------------
    Charge (ESU x 10^10)
                 0.0000
    Dipole Moment (Debye)
         X      -1.6435      Y      -2.1527      Z       0.6857
       Tot       2.7938
    Quadrupole Moments (Debye-Ang)
        XX     -39.2546     XY      -4.8464     YY     -44.9446
        XZ       2.7993     YZ       0.8056     ZZ     -40.1217

 Frequency:      -620.73                 469.48                 563.88
 Force Cnst:      2.0352                 0.5023                 0.5589
 Red. Mass:       8.9651                 3.8682                 2.9836
 IR Intens:        5.732                  3.799                  3.521
 Frequency:       609.09                 707.64                 730.79
 Force Cnst:      0.2894                 2.2034                 0.5963
 Red. Mass:       1.3240                 7.4682                 1.8953
 IR Intens:       15.149                  0.860                 11.734
 Frequency:       761.42                 788.71                 801.20
 Force Cnst:      1.6940                 1.1221                 1.0166
 Red. Mass:       4.9591                 3.0616                 2.6881
 IR Intens:       10.267                 19.288                  6.642
 Frequency:       843.19                 877.96                 902.25
 Force Cnst:      0.7737                 0.6950                 0.7561
 Red. Mass:       1.8469                 1.5303                 1.5765
 IR Intens:        7.232                 26.238                 17.564
 Frequency:       921.36                 968.57                 972.63
 Force Cnst:      0.8186                 0.9949                 0.8359
 Red. Mass:       1.6367                 1.7999                 1.4997
 IR Intens:        0.363                  2.221                  3.225
 Frequency:       999.34                1042.39                1045.77
 Force Cnst:      0.9964                 0.8811                 1.9762
 Red. Mass:       1.6934                 1.3762                 3.0669
 IR Intens:        1.769                  2.414                  2.211
 Frequency:      1060.95                1135.48                1206.28
 Force Cnst:      1.1427                 1.7341                 1.1450
 Red. Mass:       1.7231                 2.2828                 1.3356
 IR Intens:        5.811                  0.245                  0.312
 Frequency:      1234.25                1242.30                1284.18
 Force Cnst:      2.7314                 1.2319                 2.0465
 Red. Mass:       3.0432                 1.3548                 2.1062
 IR Intens:        7.349                  1.983                 13.622
 Frequency:      1296.30                1336.35                1382.98
 Force Cnst:      2.2927                 2.4788                 2.6460
 Red. Mass:       2.3158                 2.3559                 2.3481
 IR Intens:        2.914                  6.359                  0.444
 Frequency:      3169.10                3207.05                3212.65
 Force Cnst:      6.4636                 6.6162                 6.6345
 Red. Mass:       1.0923                 1.0918                 1.0910
 IR Intens:       14.085                 11.854                  5.613
 Frequency:      3222.50                3225.14                3247.55
 Force Cnst:      6.6962                 6.7094                 6.8167
 Red. Mass:       1.0944                 1.0948                 1.0970
 IR Intens:       24.127                  0.597                  3.806

 STANDARD THERMODYNAMIC QUANTITIES AT   298.15 K  AND     1.00 ATM

   This Molecule has  1 Imaginary Frequencies
   Zero point vibrational energy:       63.571 kcal/mol

   Atom    1 Element C  Has Mass   12.00000
   Atom    2 Element C  Has Mass   12.00000
   Atom    3 Element C  Has Mass   12.00000
   Atom    4 Element C  Has Mass   12.00000
   Atom    5 Element C  Has Mass   12.00000
   Atom    6 Element N  Has Mass   14.00307
   Atom    7 Element H  Has Mass    1.00783
   Atom    8 Element H  Has Mass    1.00783
   Atom    9 Element H  Has Mass    1.00783
   Atom   10 Element H  Has Mass    1.00783
   Atom   11 Element H  Has Mass    1.00783
   Atom   12 Element C  Has Mass   12.00000
   Atom   13 Element H  Has Mass    1.00783
   Molecular Mass:    92.050050 amu
   Principal axes and moments of inertia in amu*Bohr^2:
                             1           2           3
    Eigenvalues --      386.33224   401.86315   534.38678
          X              -0.10171     0.95403    -0.28192
          Y               0.93295     0.18985     0.30588
          Z              -0.34534     0.23190     0.90937
   Rotational Symmetry Number is   1
   The Molecule is an Asymmetric Top
   Translational Enthalpy:        0.889 kcal/mol
   Rotational Enthalpy:           0.889 kcal/mol
   Vibrational Enthalpy:         64.570 kcal/mol
   gas constant (RT):             0.592 kcal/mol
   Translational Entropy:        39.471  cal/mol.K
   Rotational Entropy:           25.920  cal/mol.K
   Vibrational Entropy:           4.315  cal/mol.K

   Total Enthalpy:               66.940 kcal/mol
   Total Entropy:                69.706  cal/mol.K

 Total job time:  564.86s(wall), 559.39s(cpu)
        *  Thank you very much for using Q-Chem.  Have a nice day.  *
