 Q-Chem 5.0, Q-Chem, Inc., Pleasanton, CA (2017)
 Q-Chem 5.0.2 for Intel X86 EM64T Linux

User input:
--------------------------------------------------------------
$molecule
0 2
C        1.1275036404    0.1918961657    0.4734165392
C        0.8557349672   -0.9780042488   -0.4865106154
C       -0.4691580315   -0.9890670536   -0.7199582506
C       -1.0737200572    0.1679043627    0.1038091570
C       -0.4313808012    1.4532337658   -0.4540703786
N        0.8314113192    1.4878430686   -0.2628465899
H        2.1022023700    0.2174366231    0.9557406162
H        1.6130165960   -1.6353953739   -0.8983655343
H       -1.0316788945   -1.6451399926   -1.3746742822
H       -2.1539214513    0.1642681282    0.2449304696
H       -0.9673872875    2.2451143083   -0.9725999562
C       -0.1362539921    0.0377689185    1.3094707556
H       -0.2663683774   -0.7178586718    2.0816580698
$end

$rem
method                b3lyp
basis                 6-31+g(d,p)
unrestricted          true
symmetry              off
sym_ignore            true
incdft                false
incfock               0
scf_convergence       6
thresh                14
jobtype               sp
scf_guess             read
scf_algorithm         diis
max_scf_cycles        100
stability_analysis    true
max_cis_cycles        100
cis_n_roots           4
$end

--------------------------------------------------------------

             Standard Nuclear Orientation (Angstroms)
    I     Atom           X                Y                Z
 ----------------------------------------------------------------
    1      C       1.1275036404     0.1918961657     0.4734165392
    2      C       0.8557349672    -0.9780042488    -0.4865106154
    3      C      -0.4691580315    -0.9890670536    -0.7199582506
    4      C      -1.0737200572     0.1679043627     0.1038091570
    5      C      -0.4313808012     1.4532337658    -0.4540703786
    6      N       0.8314113192     1.4878430686    -0.2628465899
    7      H       2.1022023700     0.2174366231     0.9557406162
    8      H       1.6130165960    -1.6353953739    -0.8983655343
    9      H      -1.0316788945    -1.6451399926    -1.3746742822
   10      H      -2.1539214513     0.1642681282     0.2449304696
   11      H      -0.9673872875     2.2451143083    -0.9725999562
   12      C      -0.1362539921     0.0377689185     1.3094707556
   13      H      -0.2663683774    -0.7178586718     2.0816580698
 ----------------------------------------------------------------

    2    -286.8735097455      2.02E-09 Convergence criterion met
 Total energy in the final basis set = -286.87350975

         TDDFT/TDA Excitation Energies
 ---------------------------------------------------

 Excited state   1: excitation energy (eV) =    3.1022
 Total energy for state  1:                  -286.75950730 au
    <S**2>     :  1.1530
    Trans. Mom.: -0.0930 X   0.0416 Y  -0.0593 Z
    Strength   :     0.0010561085
    S(  1) --> V(  1) amplitude =  0.9399 alpha
    D( 23) --> V(  1) amplitude = -0.1756 beta
    D( 24) --> V(  1) amplitude =  0.1578 beta

 Excited state   2: excitation energy (eV) =    4.1357
 Total energy for state  2:                  -286.72152438 au
    <S**2>     :  1.7089
    Trans. Mom.:  0.0058 X  -0.0170 Y  -0.0671 Z
    Strength   :     0.0004886801
    D( 22) --> V(  1) amplitude = -0.1968 alpha
    D( 24) --> V(  1) amplitude =  0.3071 alpha
    S(  1) --> V(  1) amplitude =  0.1736 alpha
    S(  1) --> V(  2) amplitude =  0.4866 alpha
    S(  1) --> V(  3) amplitude =  0.2418 alpha
    D( 22) --> V(  1) amplitude =  0.1762 beta
    D( 23) --> S(  1) amplitude = -0.2326 beta
    D( 23) --> V(  3) amplitude = -0.1968 beta
    D( 24) --> S(  1) amplitude = -0.4489 beta
    D( 24) --> V(  1) amplitude = -0.3400 beta

 Excited state   3: excitation energy (eV) =    4.2580
 Total energy for state  3:                  -286.71702948 au
    <S**2>     :  1.7114
    Trans. Mom.:  0.0166 X   0.0995 Y   0.0861 Z
    Strength   :     0.0018341718
    D( 22) --> V(  1) amplitude = -0.1662 alpha
    D( 24) --> V(  1) amplitude = -0.3243 alpha
    S(  1) --> V(  2) amplitude =  0.4488 alpha
    S(  1) --> V(  3) amplitude =  0.2293 alpha
    D( 22) --> V(  1) amplitude =  0.1750 beta
    D( 23) --> S(  1) amplitude =  0.2405 beta
    D( 23) --> V(  1) amplitude =  0.2968 beta
    D( 24) --> S(  1) amplitude =  0.5234 beta
    D( 24) --> V(  3) amplitude =  0.2266 beta

 Excited state   4: excitation energy (eV) =    4.3674
 Total energy for state  4:                  -286.71301107 au
    <S**2>     :  2.1748
    Trans. Mom.:  0.0196 X   0.0529 Y   0.2213 Z
    Strength   :     0.0055788279
    D( 22) --> V(  1) amplitude = -0.2106 alpha
    D( 22) --> V(  2) amplitude = -0.1608 alpha
    D( 23) --> V(  1) amplitude = -0.5196 alpha
    S(  1) --> V(  1) amplitude = -0.2088 alpha
    D( 22) --> S(  1) amplitude =  0.1633 beta
    D( 22) --> V(  1) amplitude =  0.2677 beta
    D( 22) --> V(  3) amplitude =  0.1605 beta
    D( 23) --> S(  1) amplitude = -0.4049 beta
    D( 23) --> V(  1) amplitude = -0.3870 beta
    D( 24) --> S(  1) amplitude =  0.2595 beta
    D( 24) --> V(  1) amplitude =  0.1978 beta

 ---------------------------------------------------

                    Orbital Energies (a.u.)
 --------------------------------------------------------------

 Alpha MOs
 -- Occupied --
-14.337 -10.235 -10.231 -10.221 -10.216 -10.213 -10.209  -0.965
 -0.832  -0.737  -0.715  -0.589  -0.583  -0.539  -0.520  -0.481
 -0.429  -0.420  -0.391  -0.382  -0.358  -0.305  -0.283  -0.271
 -0.206

 Beta MOs
 -- Occupied --
-14.336 -10.235 -10.231 -10.221 -10.211 -10.208 -10.202  -0.961
 -0.827  -0.735  -0.700  -0.587  -0.571  -0.536  -0.517  -0.472
 -0.426  -0.416  -0.389  -0.379  -0.352  -0.298  -0.273  -0.268

          Ground-State Mulliken Net Atomic Charges

     Atom                 Charge (a.u.)    Spin (a.u.)
  --------------------------------------------------------
      1 C                     0.025922      -0.090379
      2 C                    -0.147386       0.044607
      3 C                    -0.127920       0.095602
      4 C                     0.009042      -0.061284
      5 C                    -0.091328      -0.031605
      6 N                    -0.204166       0.026031
      7 H                     0.129415       0.003592
      8 H                     0.138873       0.000736
      9 H                     0.138443       0.000114
     10 H                     0.124784       0.003446
     11 H                     0.137296      -0.000094
     12 C                    -0.271766       1.035491
     13 H                     0.138791      -0.026258
  --------------------------------------------------------
  Sum of atomic charges =    -0.000000

                    Cartesian Multipole Moments
 -----------------------------------------------------------------
    Charge (ESU x 10^10)
                 0.0000
    Dipole Moment (Debye)
         X      -1.5980      Y      -2.0337      Z      -0.1279
       Tot       2.5895
    Quadrupole Moments (Debye-Ang)
        XX     -39.0148     XY      -4.5097     YY     -44.4383
        XZ       2.2513     YZ       0.0590     ZZ     -42.0140

 Total job time:  214.38s(wall), 212.20s(cpu)
        *  Thank you very much for using Q-Chem.  Have a nice day.  *
