 Q-Chem 5.0, Q-Chem, Inc., Pleasanton, CA (2017)
 Q-Chem 5.0.2 for Intel X86 EM64T Linux

User input:
--------------------------------------------------------------
$molecule
0 2
C        1.1921562776    0.3473297423    0.3862301082
C        0.6895085021   -1.0654228600   -0.1619850445
C       -0.5726658635   -0.9313814153   -0.8727470668
C       -1.0834212480    0.1350959609    0.0922735442
C       -0.5118158617    1.4488935158   -0.4288711788
N        0.7640886679    1.5377815011   -0.3047743081
H        2.1943850376    0.3406009617    0.8003429146
H        1.4084564521   -1.8761584130   -0.2061662775
H       -0.9039500061   -1.2294807272   -1.8626967420
H       -2.1329233808    0.1247318747    0.3919017352
H       -1.0864934924    2.1947849615   -0.9738844555
C        0.0629944951   -0.3455149695    1.0561239523
H       -0.0203195799   -0.6812601331    2.0842528188
$end

$rem
method                b3lyp
basis                 6-31+g(d,p)
unrestricted          true
symmetry              off
sym_ignore            true
incdft                false
incfock               0
scf_convergence       8
thresh                14
jobtype               sp
scf_guess             core
scf_guess_mix         5
scf_algorithm         diis
max_scf_cycles        100
$end

--------------------------------------------------------------

             Standard Nuclear Orientation (Angstroms)
    I     Atom           X                Y                Z
 ----------------------------------------------------------------
    1      C       1.1921562776     0.3473297423     0.3862301082
    2      C       0.6895085021    -1.0654228600    -0.1619850445
    3      C      -0.5726658635    -0.9313814153    -0.8727470668
    4      C      -1.0834212480     0.1350959609     0.0922735442
    5      C      -0.5118158617     1.4488935158    -0.4288711788
    6      N       0.7640886679     1.5377815011    -0.3047743081
    7      H       2.1943850376     0.3406009617     0.8003429146
    8      H       1.4084564521    -1.8761584130    -0.2061662775
    9      H      -0.9039500061    -1.2294807272    -1.8626967420
   10      H      -2.1329233808     0.1247318747     0.3919017352
   11      H      -1.0864934924     2.1947849615    -0.9738844555
   12      C       0.0629944951    -0.3455149695     1.0561239523
   13      H      -0.0203195799    -0.6812601331     2.0842528188
 ----------------------------------------------------------------

   21    -286.8593253149      5.22E-09 Convergence criterion met
 Total energy in the final basis set = -286.85932531

                    Orbital Energies (a.u.)
 --------------------------------------------------------------

 Alpha MOs
 -- Occupied --
-14.334 -10.234 -10.230 -10.220 -10.219 -10.219 -10.216  -0.979
 -0.867  -0.759  -0.673  -0.615  -0.580  -0.544  -0.524  -0.475
 -0.448  -0.415  -0.410  -0.366  -0.346  -0.309  -0.285  -0.268
 -0.188

 Beta MOs
 -- Occupied --
-14.333 -10.232 -10.229 -10.221 -10.220 -10.217 -10.204  -0.975
 -0.861  -0.751  -0.662  -0.611  -0.576  -0.537  -0.518  -0.469
 -0.444  -0.412  -0.404  -0.358  -0.342  -0.302  -0.274  -0.262

          Ground-State Mulliken Net Atomic Charges

     Atom                 Charge (a.u.)    Spin (a.u.)
  --------------------------------------------------------
      1 C                    -0.290269       0.102868
      2 C                    -0.055231      -0.154415
      3 C                    -0.152695       0.979847
      4 C                    -0.026996      -0.115489
      5 C                    -0.052376       0.053450
      6 N                    -0.171432       0.035835
      7 H                     0.144222       0.003589
      8 H                     0.138481       0.005183
      9 H                     0.130843      -0.023254
     10 H                     0.133559       0.023536
     11 H                     0.131150       0.001100
     12 C                    -0.062565       0.087428
     13 H                     0.133309       0.000323
  --------------------------------------------------------
  Sum of atomic charges =    -0.000000

                    Cartesian Multipole Moments
 -----------------------------------------------------------------
    Charge (ESU x 10^10)
                -0.0000
    Dipole Moment (Debye)
         X      -1.2490      Y      -1.7435      Z       0.8399
       Tot       2.3033
    Quadrupole Moments (Debye-Ang)
        XX     -39.3644     XY      -5.2464     YY     -45.4866
        XZ       2.4502     YZ       0.4036     ZZ     -40.2025

 Total job time:  28.84s(wall), 107.33s(cpu)
        *  Thank you very much for using Q-Chem.  Have a nice day.  *
