 Q-Chem 5.0, Q-Chem, Inc., Pleasanton, CA (2017)
 Q-Chem 5.0.2 for Intel X86 EM64T Linux

User input:
--------------------------------------------------------------
$molecule
0 2
C        1.1257323313    0.1922337865    0.4746690282
C        0.8532525452   -0.9767880533   -0.4848430126
C       -0.4702377696   -0.9912679892   -0.7120302100
C       -1.0731964535    0.1687161117    0.1057264456
C       -0.4272635210    1.4517249684   -0.4558123407
N        0.8339223034    1.4888177379   -0.2651137969
H        2.1011704198    0.2168050138    0.9582537018
H        1.6120288300   -1.6270792997   -0.9059998495
H       -1.0344162253   -1.6493470802   -1.3639010419
H       -2.1541597964    0.1675314014    0.2463372013
H       -0.9627146293    2.2393822215   -0.9832903073
C       -0.1377420172    0.0440018324    1.3128677990
H       -0.2663760177   -0.7247306512    2.0731363830
****
C        1.1893717253    0.3429683502    0.3776237553
C        0.6801293704   -1.0757227126   -0.1480695422
C       -0.5790030744   -0.9377586450   -0.8669931397
C       -1.0854326285    0.1292982268    0.1010221989
C       -0.5151217370    1.4382335867   -0.4322212085
N        0.7602950954    1.5281228409   -0.3216395131
H        2.1943357315    0.3386675018    0.7872184282
H        1.3973493991   -1.8896592610   -0.1860928727
H       -0.8643564917   -1.1587859789   -1.8928220475
H       -2.1340046667    0.1181233146    0.4064295023
H       -1.0955357881    2.1774537189   -0.9820994394
C        0.0639465344   -0.3472336994    1.0608435761
H       -0.0119734699   -0.6637072429    2.0968003022
$end

$rem
method                b3lyp
basis                 6-31g(d)
unrestricted          true
symmetry              off
sym_ignore            true
incdft                false
incfock               0
scf_convergence       8
thresh                14
jobtype               fsm
scf_guess             core
scf_guess_mix         5
scf_algorithm         diis
max_scf_cycles        100
fsm_nnode             21
fsm_ngrad             6
fsm_mode              2
fsm_opt_mode          2
$end

--------------------------------------------------------------

   21    -286.8516608971      2.63E-09 Convergence criterion met
 Total energy in the final basis set = -286.85166090
   20    -286.8383245531      8.16E-09 Convergence criterion met
 Total energy in the final basis set = -286.83832455
   21    -286.8511886936      2.50E-09 Convergence criterion met
 Total energy in the final basis set = -286.85118869
   21    -286.8497823051      8.56E-09 Convergence criterion met
 Total energy in the final basis set = -286.84978231
   23    -286.8472712504      4.59E-09 Convergence criterion met
 Total energy in the final basis set = -286.84727125
   21    -286.8499632459      2.87E-09 Convergence criterion met
 Total energy in the final basis set = -286.84996325
   21    -286.8377951454      5.77E-09 Convergence criterion met
 Total energy in the final basis set = -286.83779515
   21    -286.8363316879      3.25E-09 Convergence criterion met
 Total energy in the final basis set = -286.82410929
   22    -286.8243719428      5.86E-09 Convergence criterion met
 Total energy in the final basis set = -286.82437194
   22    -286.8241112225      7.18E-09 Convergence criterion met
 Total energy in the final basis set = -286.82411122
   22    -286.8243713726      5.86E-09 Convergence criterion met
 Total energy in the final basis set = -286.82437137
   22    -286.8241034428      7.12E-09 Convergence criterion met
 Total energy in the final basis set = -286.82410344
   22    -286.8243807056      5.88E-09 Convergence criterion met
 Total energy in the final basis set = -286.82438071
   22    -286.8240942055      7.23E-09 Convergence criterion met
 Total energy in the final basis set = -286.82409421
   22    -286.8243912863      5.84E-09 Convergence criterion met
 Total energy in the final basis set = -286.82439129

                    Orbital Energies (a.u.)
 --------------------------------------------------------------

 Alpha MOs
 -- Occupied --
-14.315 -10.224 -10.218 -10.214 -10.209 -10.208 -10.195  -0.959
 -0.835  -0.736  -0.687  -0.592  -0.575  -0.536  -0.514  -0.462
 -0.432  -0.415  -0.397  -0.369  -0.346  -0.285  -0.268  -0.261
 -0.149

 Beta MOs
 -- Occupied --
-14.314 -10.224 -10.218 -10.217 -10.209 -10.199 -10.186  -0.955
 -0.827  -0.732  -0.675  -0.588  -0.565  -0.528  -0.512  -0.453
 -0.429  -0.410  -0.395  -0.364  -0.341  -0.277  -0.258  -0.249

          Ground-State Mulliken Net Atomic Charges

     Atom                 Charge (a.u.)    Spin (a.u.)
  --------------------------------------------------------
      1 C                    -0.036849      -0.003097
      2 C                    -0.124214      -0.232349
      3 C                    -0.086859       0.584084
      4 C                    -0.260808      -0.068770
      5 C                     0.092967       0.004989
      6 N                    -0.334632       0.057438
      7 H                     0.145316       0.005479
      8 H                     0.147417       0.014590
      9 H                     0.140808      -0.016326
     10 H                     0.136528       0.010498
     11 H                     0.146322       0.001652
     12 C                    -0.124525       0.676730
     13 H                     0.158530      -0.034918
  --------------------------------------------------------
  Sum of atomic charges =    -0.000000

                    Cartesian Multipole Moments
 -----------------------------------------------------------------
    Charge (ESU x 10^10)
                 0.0000
    Dipole Moment (Debye)
         X      -1.1551      Y      -1.8578      Z       0.4934
       Tot       2.2426
    Quadrupole Moments (Debye-Ang)
        XX     -38.2869     XY      -4.6610     YY     -43.1202
        XZ       2.2025     YZ       0.1183     ZZ     -39.5815

             Standard Nuclear Orientation (Angstroms)
    I     Atom           X                Y                Z
 ----------------------------------------------------------------
    1      C       1.1602549289     0.2751435525     0.4167785003
    2      C       0.7926268258    -0.9790313375    -0.3684205276
    3      C      -0.5283024739    -0.9545775097    -0.8043020789
    4      C      -1.0821327649     0.1552569829     0.0948258623
    5      C      -0.4633833162     1.4620000832    -0.4310785334
    6      N       0.8068638893     1.5207058157    -0.2749970422
    7      H       2.1428852989     0.2758897076     0.8821012617
    8      H       1.5220346599    -1.7694709435    -0.5320773688
    9      H      -0.9978626858    -1.4940317235    -1.6182215931
   10      H      -2.1497157447     0.1461487722     0.3167975485
   11      H      -1.0189322657     2.2248608254    -0.9733156393
   12      C      -0.0459351059    -0.1523342175     1.1867751672
   13      H      -0.1475986186    -0.7317119182     2.0932139702
 ----------------------------------------------------------------

 Total job time:  1273.60s(wall), 4763.42s(cpu)
        *  Thank you very much for using Q-Chem.  Have a nice day.  *
