 Q-Chem 5.0, Q-Chem, Inc., Pleasanton, CA (2017)
 Q-Chem 5.0.2 for Intel X86 EM64T Linux

User input:
--------------------------------------------------------------
$molecule
0 2
C        1.1670093310    0.2822702402    0.4126474333
C        0.7851892292   -0.9877831900   -0.3478159546
C       -0.5198988947   -0.9134476001   -0.8610007441
C       -1.0782432306    0.1550457834    0.0771902190
C       -0.4748489881    1.4715540918   -0.4176160013
N        0.7992010774    1.5332404289   -0.2635073318
H        2.1478457074    0.2774145982    0.8791308195
H        1.5064842289   -1.7871838979   -0.4930257112
H       -1.0140558711   -1.5175529010   -1.6089317918
H       -2.1434253140    0.1342286481    0.3051370340
H       -1.0274456171    2.2382226034   -0.9565020853
C       -0.0253115939   -0.2181123896    1.1475649276
H       -0.1316974372   -0.6890483261    2.1148087134
$end

$rem
method                b3lyp
basis                 6-31+g(d,p)
unrestricted          true
symmetry              off
sym_ignore            true
incdft                false
incfock               0
scf_convergence       8
thresh                14
jobtype               rpath
scf_guess             core
scf_guess_mix         5
scf_algorithm         diis
max_scf_cycles        100
rpath_direction       1
rpath_tol_displacement 1000
rpath_max_cycles      50
geom_opt_max_cycles   300
geom_opt_hessian      read
$end

--------------------------------------------------------------

   22    -286.8475237379      6.53E-09 Convergence criterion met
 Total energy in the final basis set = -286.84752374
   22    -286.8492406928      4.16E-09 Convergence criterion met
 Total energy in the final basis set = -286.84924069
   21    -286.8492132312      8.32E-09 Convergence criterion met
 Total energy in the final basis set = -286.84921323
   22    -286.8492431700      4.07E-09 Convergence criterion met
 Total energy in the final basis set = -286.84924317
   21    -286.8538214021      8.35E-09 Convergence criterion met
 Total energy in the final basis set = -286.85382140
   21    -286.8537638845      8.40E-09 Convergence criterion met
 Total energy in the final basis set = -286.85376388
   21    -286.8538298569      8.34E-09 Convergence criterion met
 Total energy in the final basis set = -286.85382986
   22    -286.8592311133      2.75E-09 Convergence criterion met
 Total energy in the final basis set = -286.85866820
   21    -286.8593226013      5.31E-09 Convergence criterion met
 Total energy in the final basis set = -286.85932260
   21    -286.8593047720      4.63E-09 Convergence criterion met
 Total energy in the final basis set = -286.85930477
   21    -286.8593268289      5.22E-09 Convergence criterion met
 Total energy in the final basis set = -286.85932683
   20    -286.8558980159      3.75E-09 Convergence criterion met
 Total energy in the final basis set = -286.85589802
   21    -286.8593299853      5.28E-09 Convergence criterion met
 Total energy in the final basis set = -286.85932999
   21    -286.8593295093      5.18E-09 Convergence criterion met
 Total energy in the final basis set = -286.85932951
   21    -286.8593305999      5.24E-09 Convergence criterion met
 Total energy in the final basis set = -286.85933060

                    Orbital Energies (a.u.)
 --------------------------------------------------------------

 Alpha MOs
 -- Occupied --
-14.334 -10.234 -10.230 -10.220 -10.219 -10.219 -10.216  -0.979
 -0.867  -0.759  -0.674  -0.615  -0.580  -0.544  -0.524  -0.475
 -0.448  -0.415  -0.410  -0.366  -0.346  -0.309  -0.285  -0.267
 -0.188

 Beta MOs
 -- Occupied --
-14.333 -10.232 -10.229 -10.221 -10.220 -10.217 -10.204  -0.975
 -0.861  -0.751  -0.662  -0.611  -0.576  -0.537  -0.518  -0.469
 -0.444  -0.412  -0.404  -0.358  -0.342  -0.302  -0.274  -0.262

          Ground-State Mulliken Net Atomic Charges

     Atom                 Charge (a.u.)    Spin (a.u.)
  --------------------------------------------------------
      1 C                    -0.290131       0.103063
      2 C                    -0.055082      -0.154512
      3 C                    -0.152795       0.979601
      4 C                    -0.027091      -0.115410
      5 C                    -0.052536       0.053635
      6 N                    -0.171339       0.035789
      7 H                     0.144212       0.003582
      8 H                     0.138498       0.005183
      9 H                     0.130822      -0.023176
     10 H                     0.133577       0.023536
     11 H                     0.131170       0.001084
     12 C                    -0.062642       0.087317
     13 H                     0.133336       0.000307
  --------------------------------------------------------
  Sum of atomic charges =     0.000000

                    Cartesian Multipole Moments
 -----------------------------------------------------------------
    Charge (ESU x 10^10)
                 0.0000
    Dipole Moment (Debye)
         X      -1.2478      Y      -1.7439      Z       0.8363
       Tot       2.3016
    Quadrupole Moments (Debye-Ang)
        XX     -39.3585     XY      -5.2479     YY     -45.4833
        XZ       2.4386     YZ       0.3965     ZZ     -40.2063

             Standard Nuclear Orientation (Angstroms)
    I     Atom           X                Y                Z
 ----------------------------------------------------------------
    1      C       1.1670093310     0.2822702402     0.4126474333
    2      C       0.7851892292    -0.9877831900    -0.3478159546
    3      C      -0.5198988947    -0.9134476001    -0.8610007441
    4      C      -1.0782432306     0.1550457834     0.0771902190
    5      C      -0.4748489881     1.4715540918    -0.4176160013
    6      N       0.7992010774     1.5332404289    -0.2635073318
    7      H       2.1478457074     0.2774145982     0.8791308195
    8      H       1.5064842289    -1.7871838979    -0.4930257112
    9      H      -1.0140558711    -1.5175529010    -1.6089317918
   10      H      -2.1434253140     0.1342286481     0.3051370340
   11      H      -1.0274456171     2.2382226034    -0.9565020853
   12      C      -0.0253115939    -0.2181123896     1.1475649276
   13      H      -0.1316974372    -0.6890483261     2.1148087134
 ----------------------------------------------------------------

 Total job time:  7742.78s(wall), 29804.03s(cpu)
        *  Thank you very much for using Q-Chem.  Have a nice day.  *
