 Q-Chem 5.0, Q-Chem, Inc., Pleasanton, CA (2017)
 Q-Chem 5.0.2 for Intel X86 EM64T Linux

User input:
--------------------------------------------------------------
$molecule
0 2
C        1.1657286851    0.2823325485    0.4109159667
C        0.7820168291   -0.9898385484   -0.3434097259
C       -0.5225797753   -0.9189052605   -0.8518903628
C       -1.0786859918    0.1537348898    0.0824779620
C       -0.4735800285    1.4676314806   -0.4185685095
N        0.7994688986    1.5316783232   -0.2711771561
H        2.1478487845    0.2795429957    0.8771361095
H        1.5049176420   -1.7888230565   -0.4900001446
H       -1.0054035143   -1.4996246249   -1.6262397874
H       -2.1442177820    0.1344459790    0.3128756274
H       -1.0282359967    2.2313811441   -0.9614032227
C       -0.0262121504   -0.2091908390    1.1538323739
H       -0.1302629731   -0.6955169421    2.1135303963
$end

$rem
method                b3lyp
basis                 6-31+g(d,p)
unrestricted          true
symmetry              off
sym_ignore            true
incdft                false
incfock               0
scf_convergence       8
thresh                14
jobtype               freq
scf_guess             read
scf_algorithm         diis
max_scf_cycles        100
$end

--------------------------------------------------------------

             Standard Nuclear Orientation (Angstroms)
    I     Atom           X                Y                Z
 ----------------------------------------------------------------
    1      C       1.1657286851     0.2823325485     0.4109159667
    2      C       0.7820168291    -0.9898385484    -0.3434097259
    3      C      -0.5225797753    -0.9189052605    -0.8518903628
    4      C      -1.0786859918     0.1537348898     0.0824779620
    5      C      -0.4735800285     1.4676314806    -0.4185685095
    6      N       0.7994688986     1.5316783232    -0.2711771561
    7      H       2.1478487845     0.2795429957     0.8771361095
    8      H       1.5049176420    -1.7888230565    -0.4900001446
    9      H      -1.0054035143    -1.4996246249    -1.6262397874
   10      H      -2.1442177820     0.1344459790     0.3128756274
   11      H      -1.0282359967     2.2313811441    -0.9614032227
   12      C      -0.0262121504    -0.2091908390     1.1538323739
   13      H      -0.1302629731    -0.6955169421     2.1135303963
 ----------------------------------------------------------------

    2    -286.8474849343      2.00E-09 Convergence criterion met
 Total energy in the final basis set = -286.84748493

                    Orbital Energies (a.u.)
 --------------------------------------------------------------

 Alpha MOs
 -- Occupied --
-14.330 -10.235 -10.230 -10.228 -10.225 -10.221 -10.207  -0.973
 -0.850  -0.750  -0.696  -0.601  -0.585  -0.547  -0.522  -0.473
 -0.444  -0.425  -0.408  -0.378  -0.356  -0.296  -0.284  -0.278
 -0.158

 Beta MOs
 -- Occupied --
-14.329 -10.235 -10.231 -10.230 -10.222 -10.217 -10.197  -0.968
 -0.842  -0.747  -0.684  -0.597  -0.577  -0.541  -0.519  -0.464
 -0.441  -0.419  -0.406  -0.373  -0.351  -0.287  -0.275  -0.265

          Ground-State Mulliken Net Atomic Charges

     Atom                 Charge (a.u.)    Spin (a.u.)
  --------------------------------------------------------
      1 C                    -0.134764      -0.019305
      2 C                    -0.101256      -0.236849
      3 C                    -0.144603       0.720980
      4 C                     0.007358      -0.101875
      5 C                    -0.071282      -0.001915
      6 N                    -0.179240       0.062484
      7 H                     0.138697       0.004560
      8 H                     0.138968       0.010771
      9 H                     0.138597      -0.026704
     10 H                     0.129369       0.011031
     11 H                     0.132187       0.001599
     12 C                    -0.200862       0.600813
     13 H                     0.146830      -0.025593
  --------------------------------------------------------
  Sum of atomic charges =    -0.000000

                    Cartesian Multipole Moments
 -----------------------------------------------------------------
    Charge (ESU x 10^10)
                -0.0000
    Dipole Moment (Debye)
         X      -1.2998      Y      -2.0906      Z       0.7678
       Tot       2.5787
    Quadrupole Moments (Debye-Ang)
        XX     -39.0403     XY      -5.0816     YY     -45.0465
        XZ       2.2540     YZ       0.3721     ZZ     -41.3034

 Frequency:      -665.03                 360.39                 395.80
 Force Cnst:      1.3510                 0.0923                 0.1075
 Red. Mass:       5.1847                 1.2064                 1.1644
 IR Intens:       37.265                 14.579                 30.816
 Frequency:       444.69                 481.09                 604.16
 Force Cnst:      0.3532                 0.5535                 0.9998
 Red. Mass:       3.0315                 4.0593                 4.6489
 IR Intens:       13.428                  7.952                 15.772
 Frequency:       741.12                 784.10                 829.71
 Force Cnst:      1.9533                 2.6103                 0.8801
 Red. Mass:       6.0358                 7.2062                 2.1698
 IR Intens:        3.241                  5.260                 17.963
 Frequency:       852.27                 883.44                 895.49
 Force Cnst:      1.7973                 1.0363                 0.6997
 Red. Mass:       4.1998                 2.2536                 1.4810
 IR Intens:        9.526                  7.306                  2.417
 Frequency:       914.34                 927.99                 958.29
 Force Cnst:      1.0033                 0.8040                 1.0830
 Red. Mass:       2.0369                 1.5846                 2.0016
 IR Intens:        0.522                 21.515                  2.560
 Frequency:       973.48                1027.02                1086.80
 Force Cnst:      1.1516                 1.2904                 1.2063
 Red. Mass:       2.0625                 2.0764                 1.7335
 IR Intens:        2.625                  3.545                  5.130
 Frequency:      1143.33                1177.91                1215.99
 Force Cnst:      1.2889                 1.4657                 1.3447
 Red. Mass:       1.6735                 1.7930                 1.5435
 IR Intens:       15.339                  1.772                  6.154
 Frequency:      1243.76                1275.76                1320.84
 Force Cnst:      1.4465                 1.2100                 1.5506
 Red. Mass:       1.5871                 1.2618                 1.5085
 IR Intens:        6.448                  1.167                  5.153
 Frequency:      1323.26                1411.27                1634.42
 Force Cnst:      1.7770                 3.2438                11.8951
 Red. Mass:       1.7224                 2.7642                 7.5577
 IR Intens:       17.000                  1.735                 44.495
 Frequency:      3138.56                3174.35                3175.59
 Force Cnst:      6.3266                 6.4766                 6.4976
 Red. Mass:       1.0901                 1.0909                 1.0936
 IR Intens:       17.556                 20.569                  8.443
 Frequency:      3185.46                3250.54                3265.77
 Force Cnst:      6.5338                 6.8215                 6.8845
 Red. Mass:       1.0929                 1.0958                 1.0956
 IR Intens:       19.773                  1.876                  0.415

 STANDARD THERMODYNAMIC QUANTITIES AT   298.15 K  AND     1.00 ATM

   This Molecule has  1 Imaginary Frequencies
   Zero point vibrational energy:       63.040 kcal/mol

   Atom    1 Element C  Has Mass   12.00000
   Atom    2 Element C  Has Mass   12.00000
   Atom    3 Element C  Has Mass   12.00000
   Atom    4 Element C  Has Mass   12.00000
   Atom    5 Element C  Has Mass   12.00000
   Atom    6 Element N  Has Mass   14.00307
   Atom    7 Element H  Has Mass    1.00783
   Atom    8 Element H  Has Mass    1.00783
   Atom    9 Element H  Has Mass    1.00783
   Atom   10 Element H  Has Mass    1.00783
   Atom   11 Element H  Has Mass    1.00783
   Atom   12 Element C  Has Mass   12.00000
   Atom   13 Element H  Has Mass    1.00783
   Molecular Mass:    92.050050 amu
   Principal axes and moments of inertia in amu*Bohr^2:
                             1           2           3
    Eigenvalues --      376.96942   456.83081   565.60652
          X               0.10475     0.94584    -0.30726
          Y               0.99446    -0.10249     0.02353
          Z               0.00923     0.30803     0.95133
   Rotational Symmetry Number is   1
   The Molecule is an Asymmetric Top
   Translational Enthalpy:        0.889 kcal/mol
   Rotational Enthalpy:           0.889 kcal/mol
   Vibrational Enthalpy:         64.364 kcal/mol
   gas constant (RT):             0.592 kcal/mol
   Translational Entropy:        39.471  cal/mol.K
   Rotational Entropy:           26.079  cal/mol.K
   Vibrational Entropy:           6.082  cal/mol.K

   Total Enthalpy:               66.734 kcal/mol
   Total Entropy:                71.632  cal/mol.K

 Total job time:  562.09s(wall), 560.02s(cpu)
        *  Thank you very much for using Q-Chem.  Have a nice day.  *
