 Q-Chem 5.0, Q-Chem, Inc., Pleasanton, CA (2017)
 Q-Chem 5.0.2 for Intel X86 EM64T Linux

User input:
--------------------------------------------------------------
$molecule
0 2
C        1.1670093310    0.2822702402    0.4126474333
C        0.7851892292   -0.9877831900   -0.3478159546
C       -0.5198988947   -0.9134476001   -0.8610007441
C       -1.0782432306    0.1550457834    0.0771902190
C       -0.4748489881    1.4715540918   -0.4176160013
N        0.7992010774    1.5332404289   -0.2635073318
H        2.1478457074    0.2774145982    0.8791308195
H        1.5064842289   -1.7871838979   -0.4930257112
H       -1.0140558711   -1.5175529010   -1.6089317918
H       -2.1434253140    0.1342286481    0.3051370340
H       -1.0274456171    2.2382226034   -0.9565020853
C       -0.0253115939   -0.2181123896    1.1475649276
H       -0.1316974372   -0.6890483261    2.1148087134
$end

$rem
method                b3lyp
basis                 6-31+g(d,p)
unrestricted          true
symmetry              off
sym_ignore            true
incdft                false
incfock               0
scf_convergence       8
thresh                14
jobtype               freq
scf_guess             read
scf_algorithm         diis
max_scf_cycles        100
$end

--------------------------------------------------------------

             Standard Nuclear Orientation (Angstroms)
    I     Atom           X                Y                Z
 ----------------------------------------------------------------
    1      C       1.1670093310     0.2822702402     0.4126474333
    2      C       0.7851892292    -0.9877831900    -0.3478159546
    3      C      -0.5198988947    -0.9134476001    -0.8610007441
    4      C      -1.0782432306     0.1550457834     0.0771902190
    5      C      -0.4748489881     1.4715540918    -0.4176160013
    6      N       0.7992010774     1.5332404289    -0.2635073318
    7      H       2.1478457074     0.2774145982     0.8791308195
    8      H       1.5064842289    -1.7871838979    -0.4930257112
    9      H      -1.0140558711    -1.5175529010    -1.6089317918
   10      H      -2.1434253140     0.1342286481     0.3051370340
   11      H      -1.0274456171     2.2382226034    -0.9565020853
   12      C      -0.0253115939    -0.2181123896     1.1475649276
   13      H      -0.1316974372    -0.6890483261     2.1148087134
 ----------------------------------------------------------------

    2    -286.8475237379      5.36E-10 Convergence criterion met
 Total energy in the final basis set = -286.84752374

                    Orbital Energies (a.u.)
 --------------------------------------------------------------

 Alpha MOs
 -- Occupied --
-14.330 -10.235 -10.230 -10.229 -10.226 -10.221 -10.206  -0.972
 -0.849  -0.751  -0.696  -0.601  -0.585  -0.548  -0.522  -0.472
 -0.444  -0.424  -0.409  -0.378  -0.356  -0.296  -0.284  -0.277
 -0.157

 Beta MOs
 -- Occupied --
-14.329 -10.235 -10.231 -10.230 -10.222 -10.217 -10.197  -0.968
 -0.842  -0.747  -0.684  -0.598  -0.577  -0.541  -0.519  -0.463
 -0.441  -0.419  -0.407  -0.373  -0.351  -0.287  -0.275  -0.265

          Ground-State Mulliken Net Atomic Charges

     Atom                 Charge (a.u.)    Spin (a.u.)
  --------------------------------------------------------
      1 C                    -0.133196      -0.021083
      2 C                    -0.103550      -0.233699
      3 C                    -0.140494       0.728538
      4 C                     0.002092      -0.101913
      5 C                    -0.069995      -0.002316
      6 N                    -0.179883       0.062363
      7 H                     0.138968       0.004330
      8 H                     0.139203       0.010311
      9 H                     0.139035      -0.028787
     10 H                     0.129088       0.010605
     11 H                     0.132711       0.001554
     12 C                    -0.199892       0.594486
     13 H                     0.145914      -0.024389
  --------------------------------------------------------
  Sum of atomic charges =     0.000000

                    Cartesian Multipole Moments
 -----------------------------------------------------------------
    Charge (ESU x 10^10)
                 0.0000
    Dipole Moment (Debye)
         X      -1.3071      Y      -2.1005      Z       0.7991
       Tot       2.5998
    Quadrupole Moments (Debye-Ang)
        XX     -38.9959     XY      -5.0804     YY     -44.9714
        XZ       2.2365     YZ       0.3867     ZZ     -41.3894

 Frequency:      -653.96                 334.39                 391.97
 Force Cnst:      1.3635                 0.0774                 0.1022
 Red. Mass:       5.4114                 1.1743                 1.1293
 IR Intens:       34.339                 20.934                 30.176
 Frequency:       439.45                 482.74                 606.21
 Force Cnst:      0.4229                 0.5226                 1.0011
 Red. Mass:       3.7166                 3.8060                 4.6236
 IR Intens:        7.356                  6.217                 15.071
 Frequency:       741.12                 784.57                 825.66
 Force Cnst:      1.9249                 2.5501                 0.8667
 Red. Mass:       5.9480                 7.0314                 2.1579
 IR Intens:        3.412                  5.148                 17.033
 Frequency:       852.47                 882.32                 893.04
 Force Cnst:      1.7588                 1.0075                 0.6944
 Red. Mass:       4.1078                 2.1964                 1.4777
 IR Intens:        9.588                  8.192                  2.804
 Frequency:       914.17                 925.09                 957.74
 Force Cnst:      0.9806                 0.8253                 1.0886
 Red. Mass:       1.9915                 1.6368                 2.0143
 IR Intens:        1.317                 20.144                  2.634
 Frequency:       972.70                1026.43                1083.86
 Force Cnst:      1.1328                 1.2884                 1.2138
 Red. Mass:       2.0321                 2.0756                 1.7537
 IR Intens:        2.514                  3.867                  5.278
 Frequency:      1139.77                1175.03                1214.48
 Force Cnst:      1.2888                 1.4825                 1.3337
 Red. Mass:       1.6838                 1.8225                 1.5347
 IR Intens:       15.458                  1.882                  5.875
 Frequency:      1241.51                1272.59                1318.70
 Force Cnst:      1.4495                 1.2016                 1.5355
 Red. Mass:       1.5961                 1.2593                 1.4987
 IR Intens:        6.810                  1.019                  7.911
 Frequency:      1321.49                1404.66                1626.37
 Force Cnst:      1.8248                 3.1388                11.6810
 Red. Mass:       1.7735                 2.7000                 7.4953
 IR Intens:       14.351                  1.580                 44.223
 Frequency:      3146.42                3184.14                3185.36
 Force Cnst:      6.3583                 6.5183                 6.5357
 Red. Mass:       1.0901                 1.0912                 1.0933
 IR Intens:       17.866                 20.254                  6.885
 Frequency:      3195.05                3257.48                3263.17
 Force Cnst:      6.5728                 6.8459                 6.8788
 Red. Mass:       1.0928                 1.0950                 1.0964
 IR Intens:       19.166                  1.150                  0.543

 STANDARD THERMODYNAMIC QUANTITIES AT   298.15 K  AND     1.00 ATM

   This Molecule has  1 Imaginary Frequencies
   Zero point vibrational energy:       62.987 kcal/mol

   Atom    1 Element C  Has Mass   12.00000
   Atom    2 Element C  Has Mass   12.00000
   Atom    3 Element C  Has Mass   12.00000
   Atom    4 Element C  Has Mass   12.00000
   Atom    5 Element C  Has Mass   12.00000
   Atom    6 Element N  Has Mass   14.00307
   Atom    7 Element H  Has Mass    1.00783
   Atom    8 Element H  Has Mass    1.00783
   Atom    9 Element H  Has Mass    1.00783
   Atom   10 Element H  Has Mass    1.00783
   Atom   11 Element H  Has Mass    1.00783
   Atom   12 Element C  Has Mass   12.00000
   Atom   13 Element H  Has Mass    1.00783
   Molecular Mass:    92.050050 amu
   Principal axes and moments of inertia in amu*Bohr^2:
                             1           2           3
    Eigenvalues --      376.98842   456.61476   566.63042
          X               0.10089     0.94517    -0.31059
          Y               0.99482    -0.09980     0.01947
          Z               0.01260     0.31095     0.95034
   Rotational Symmetry Number is   1
   The Molecule is an Asymmetric Top
   Translational Enthalpy:        0.889 kcal/mol
   Rotational Enthalpy:           0.889 kcal/mol
   Vibrational Enthalpy:         64.336 kcal/mol
   gas constant (RT):             0.592 kcal/mol
   Translational Entropy:        39.471  cal/mol.K
   Rotational Entropy:           26.081  cal/mol.K
   Vibrational Entropy:           6.234  cal/mol.K

   Total Enthalpy:               66.706 kcal/mol
   Total Entropy:                71.786  cal/mol.K

 Total job time:  562.46s(wall), 559.64s(cpu)
        *  Thank you very much for using Q-Chem.  Have a nice day.  *
