 Q-Chem 5.0, Q-Chem, Inc., Pleasanton, CA (2017)
 Q-Chem 5.0.2 for Intel X86 EM64T Linux

User input:
--------------------------------------------------------------
$molecule
0 2
C        1.1657286851    0.2823325485    0.4109159667
C        0.7820168291   -0.9898385484   -0.3434097259
C       -0.5225797753   -0.9189052605   -0.8518903628
C       -1.0786859918    0.1537348898    0.0824779620
C       -0.4735800285    1.4676314806   -0.4185685095
N        0.7994688986    1.5316783232   -0.2711771561
H        2.1478487845    0.2795429957    0.8771361095
H        1.5049176420   -1.7888230565   -0.4900001446
H       -1.0054035143   -1.4996246249   -1.6262397874
H       -2.1442177820    0.1344459790    0.3128756274
H       -1.0282359967    2.2313811441   -0.9614032227
C       -0.0262121504   -0.2091908390    1.1538323739
H       -0.1302629731   -0.6955169421    2.1135303963
$end

$rem
method                b3lyp
basis                 6-31+g(d,p)
unrestricted          true
symmetry              off
sym_ignore            true
incdft                false
incfock               0
scf_convergence       8
thresh                14
jobtype               ts
scf_guess             read
scf_algorithm         diis
max_scf_cycles        100
geom_opt_max_cycles   500
geom_opt_dmax         100
geom_opt_tol_gradient 10
geom_opt_hessian      read
$end

--------------------------------------------------------------

    2    -286.8474849344      9.39E-10 Convergence criterion met
 Total energy in the final basis set = -286.84748493
   13    -286.8475202624      3.43E-09 Convergence criterion met
 Total energy in the final basis set = -286.84752026
   12    -286.8475237073      6.20E-09 Convergence criterion met
 Total energy in the final basis set = -286.84752371

             Standard Nuclear Orientation (Angstroms)
    I     Atom           X                Y                Z
 ----------------------------------------------------------------
    1      C       1.1670093310     0.2822702402     0.4126474333
    2      C       0.7851892292    -0.9877831900    -0.3478159546
    3      C      -0.5198988947    -0.9134476001    -0.8610007441
    4      C      -1.0782432306     0.1550457834     0.0771902190
    5      C      -0.4748489881     1.4715540918    -0.4176160013
    6      N       0.7992010774     1.5332404289    -0.2635073318
    7      H       2.1478457074     0.2774145982     0.8791308195
    8      H       1.5064842289    -1.7871838979    -0.4930257112
    9      H      -1.0140558711    -1.5175529010    -1.6089317918
   10      H      -2.1434253140     0.1342286481     0.3051370340
   11      H      -1.0274456171     2.2382226034    -0.9565020853
   12      C      -0.0253115939    -0.2181123896     1.1475649276
   13      H      -0.1316974372    -0.6890483261     2.1148087134
 ----------------------------------------------------------------

    9    -286.8475237380      5.23E-09 Convergence criterion met
 Total energy in the final basis set = -286.84752374
 Final energy is   -286.847523737983
 **  OPTIMIZATION CONVERGED  **

                    Orbital Energies (a.u.)
 --------------------------------------------------------------

 Alpha MOs
 -- Occupied --
-14.330 -10.235 -10.230 -10.229 -10.226 -10.221 -10.206  -0.972
 -0.849  -0.751  -0.696  -0.601  -0.585  -0.548  -0.522  -0.472
 -0.444  -0.424  -0.409  -0.378  -0.356  -0.296  -0.284  -0.277
 -0.157

 Beta MOs
 -- Occupied --
-14.329 -10.235 -10.231 -10.230 -10.222 -10.217 -10.197  -0.968
 -0.842  -0.747  -0.684  -0.598  -0.577  -0.541  -0.519  -0.463
 -0.441  -0.419  -0.407  -0.373  -0.351  -0.287  -0.275  -0.265

          Ground-State Mulliken Net Atomic Charges

     Atom                 Charge (a.u.)    Spin (a.u.)
  --------------------------------------------------------
      1 C                    -0.133196      -0.021083
      2 C                    -0.103550      -0.233697
      3 C                    -0.140494       0.728537
      4 C                     0.002092      -0.101912
      5 C                    -0.069995      -0.002316
      6 N                    -0.179883       0.062363
      7 H                     0.138968       0.004330
      8 H                     0.139203       0.010311
      9 H                     0.139035      -0.028786
     10 H                     0.129088       0.010605
     11 H                     0.132711       0.001554
     12 C                    -0.199892       0.594484
     13 H                     0.145914      -0.024389
  --------------------------------------------------------
  Sum of atomic charges =     0.000000

                    Cartesian Multipole Moments
 -----------------------------------------------------------------
    Charge (ESU x 10^10)
                 0.0000
    Dipole Moment (Debye)
         X      -1.3071      Y      -2.1005      Z       0.7991
       Tot       2.5998
    Quadrupole Moments (Debye-Ang)
        XX     -38.9959     XY      -5.0804     YY     -44.9714
        XZ       2.2365     YZ       0.3867     ZZ     -41.3894

 Total job time:  67.31s(wall), 256.14s(cpu)
        *  Thank you very much for using Q-Chem.  Have a nice day.  *
