 Q-Chem 5.0, Q-Chem, Inc., Pleasanton, CA (2017)
 Q-Chem 5.0.2 for Intel X86 EM64T Linux

User input:
--------------------------------------------------------------
$molecule
0 2
C        1.5274819430    0.6164978298   -0.4609263992
C        0.1637743143   -0.9918618398    0.1782326539
C       -1.2444471552   -1.0214135441    0.2321067793
C       -1.6893703191    0.2843323370    0.5736893981
C       -0.5827810601    1.0915903181    0.7432211409
N        0.5751960187    0.3322982669    0.5771327680
H        2.1856546774    1.4796601691   -0.4011169159
H        0.8071303917   -1.8269028672    0.4304555562
H       -1.8635983016   -1.8980535425    0.0976529761
H       -2.7175190008    0.5939976937    0.7123091589
H       -0.5194719889    2.1565481259    0.9184615217
C        1.3787127891   -0.3675397618   -1.3437596245
H        1.9323579513   -0.6878615021   -2.2219982755
$end

$rem
method                b3lyp
basis                 6-31+g(d,p)
unrestricted          true
symmetry              off
sym_ignore            true
incdft                false
incfock               0
scf_convergence       6
thresh                14
jobtype               sp
scf_guess             read
scf_algorithm         diis
max_scf_cycles        100
stability_analysis    true
max_cis_cycles        100
cis_n_roots           4
$end

--------------------------------------------------------------

             Standard Nuclear Orientation (Angstroms)
    I     Atom           X                Y                Z
 ----------------------------------------------------------------
    1      C       1.5274819430     0.6164978298    -0.4609263992
    2      C       0.1637743143    -0.9918618398     0.1782326539
    3      C      -1.2444471552    -1.0214135441     0.2321067793
    4      C      -1.6893703191     0.2843323370     0.5736893981
    5      C      -0.5827810601     1.0915903181     0.7432211409
    6      N       0.5751960187     0.3322982669     0.5771327680
    7      H       2.1856546774     1.4796601691    -0.4011169159
    8      H       0.8071303917    -1.8269028672     0.4304555562
    9      H      -1.8635983016    -1.8980535425     0.0976529761
   10      H      -2.7175190008     0.5939976937     0.7123091589
   11      H      -0.5194719889     2.1565481259     0.9184615217
   12      C       1.3787127891    -0.3675397618    -1.3437596245
   13      H       1.9323579513    -0.6878615021    -2.2219982755
 ----------------------------------------------------------------

    2    -286.8545406148      1.27E-09 Convergence criterion met
 Total energy in the final basis set = -286.85454061

         TDDFT/TDA Excitation Energies
 ---------------------------------------------------

 Excited state   1: excitation energy (eV) =    2.7666
 Total energy for state  1:                  -286.75287062 au
    <S**2>     :  0.7985
    Trans. Mom.:  0.2151 X   0.1478 Y  -0.0788 Z
    Strength   :     0.0050366763
    S(  1) --> V(  1) amplitude =  0.2268 alpha
    S(  1) --> V(  2) amplitude = -0.1575 alpha
    D( 24) --> S(  1) amplitude =  0.9351 beta

 Excited state   2: excitation energy (eV) =    2.9024
 Total energy for state  2:                  -286.74788004 au
    <S**2>     :  0.8348
    Trans. Mom.: -0.0550 X   0.0677 Y   0.1004 Z
    Strength   :     0.0012583195
    S(  1) --> V(  1) amplitude =  0.8641 alpha
    D( 23) --> S(  1) amplitude = -0.4032 beta
    D( 24) --> S(  1) amplitude = -0.2129 beta

 Excited state   3: excitation energy (eV) =    3.3976
 Total energy for state  3:                  -286.72968275 au
    <S**2>     :  0.8113
    Trans. Mom.: -0.0342 X   0.0349 Y   0.0052 Z
    Strength   :     0.0002009422
    S(  1) --> V(  2) amplitude =  0.8956 alpha
    D( 23) --> S(  1) amplitude =  0.3183 beta
    D( 24) --> S(  1) amplitude =  0.1659 beta

 Excited state   4: excitation energy (eV) =    3.9590
 Total energy for state  4:                  -286.70905148 au
    <S**2>     :  0.8589
    Trans. Mom.: -0.6559 X   0.2577 Y   0.5299 Z
    Strength   :     0.0754004225
    D( 24) --> V(  1) amplitude = -0.1975 alpha
    D( 24) --> V(  2) amplitude = -0.1722 alpha
    S(  1) --> V(  1) amplitude =  0.3461 alpha
    S(  1) --> V(  2) amplitude = -0.3139 alpha
    S(  1) --> V(  3) amplitude =  0.2507 alpha
    D( 23) --> S(  1) amplitude =  0.7392 beta

 ---------------------------------------------------

                    Orbital Energies (a.u.)
 --------------------------------------------------------------

 Alpha MOs
 -- Occupied --
-14.380 -10.238 -10.231 -10.230 -10.202 -10.200 -10.198  -0.996
 -0.820  -0.751  -0.709  -0.611  -0.582  -0.554  -0.517  -0.491
 -0.435  -0.420  -0.410  -0.399  -0.368  -0.305  -0.285  -0.247
 -0.171

 Beta MOs
 -- Occupied --
-14.378 -10.240 -10.232 -10.226 -10.201 -10.193 -10.192  -0.991
 -0.814  -0.742  -0.704  -0.601  -0.577  -0.549  -0.512  -0.484
 -0.427  -0.417  -0.408  -0.396  -0.361  -0.293  -0.259  -0.234

          Ground-State Mulliken Net Atomic Charges

     Atom                 Charge (a.u.)    Spin (a.u.)
  --------------------------------------------------------
      1 C                    -0.133431      -0.094527
      2 C                    -0.331342      -0.167126
      3 C                    -0.023111       0.381496
      4 C                    -0.108635      -0.124435
      5 C                    -0.043155       0.314018
      6 N                    -0.054696       0.045282
      7 H                     0.135938       0.016121
      8 H                     0.163306       0.023380
      9 H                     0.131369      -0.017421
     10 H                     0.131729       0.002396
     11 H                     0.139202      -0.014142
     12 C                    -0.136444       0.612351
     13 H                     0.129269       0.022607
  --------------------------------------------------------
  Sum of atomic charges =     0.000000

                    Cartesian Multipole Moments
 -----------------------------------------------------------------
    Charge (ESU x 10^10)
                 0.0000
    Dipole Moment (Debye)
         X      -0.0689      Y       0.3872      Z       0.1126
       Tot       0.4091
    Quadrupole Moments (Debye-Ang)
        XX     -38.8598     XY       0.7111     YY     -37.1305
        XZ      -1.9461     YZ       1.0618     ZZ     -45.2764

 Total job time:  303.63s(wall), 196.46s(cpu)
        *  Thank you very much for using Q-Chem.  Have a nice day.  *
