 Q-Chem 5.0, Q-Chem, Inc., Pleasanton, CA (2017)
 Q-Chem 5.0.2 for Intel X86 EM64T Linux

User input:
--------------------------------------------------------------
$molecule
0 2
C        1.4720425503    0.6961620956   -0.5166035396
C        0.3612049871   -0.9199228795    0.0717408197
C       -1.1344368389   -0.9238956779    0.0123397311
C       -1.5989322835    0.2920952617    0.5090768260
C       -0.5310248466    1.1117025647    0.8714011669
N        0.6994751629    0.4352227725    0.6820187780
H        2.0455484707    1.5959178949   -0.7100002244
H        0.7928738265   -1.7554119623    0.6410109666
H       -1.7355710951   -1.7717143295   -0.2897963327
H       -2.6430871703    0.5669634776    0.6161188383
H       -0.5466287652    2.1296155930    1.2371061637
C        1.2289315657   -0.4781389466   -1.1176450996
H        1.5896044365   -0.9785958644   -2.0067680935
$end

$rem
method                b3lyp
basis                 6-31+g(d,p)
unrestricted          true
symmetry              off
sym_ignore            true
incdft                false
incfock               0
scf_convergence       8
thresh                14
jobtype               sp
scf_guess             read
scf_algorithm         diis
max_scf_cycles        100
scf_final_print       1
$end

--------------------------------------------------------------

             Standard Nuclear Orientation (Angstroms)
    I     Atom           X                Y                Z
 ----------------------------------------------------------------
    1      C       1.4720425503     0.6961620956    -0.5166035396
    2      C       0.3612049871    -0.9199228795     0.0717408197
    3      C      -1.1344368389    -0.9238956779     0.0123397311
    4      C      -1.5989322835     0.2920952617     0.5090768260
    5      C      -0.5310248466     1.1117025647     0.8714011669
    6      N       0.6994751629     0.4352227725     0.6820187780
    7      H       2.0455484707     1.5959178949    -0.7100002244
    8      H       0.7928738265    -1.7554119623     0.6410109666
    9      H      -1.7355710951    -1.7717143295    -0.2897963327
   10      H      -2.6430871703     0.5669634776     0.6161188383
   11      H      -0.5466287652     2.1296155930     1.2371061637
   12      C       1.2289315657    -0.4781389466    -1.1176450996
   13      H       1.5896044365    -0.9785958644    -2.0067680935
 ----------------------------------------------------------------

    2    -286.8854494388      2.17E-09 Convergence criterion met
 Total energy in the final basis set = -286.88544944

                    Orbital Energies (a.u.)
 --------------------------------------------------------------

 Alpha MOs
 -- Occupied --
-14.362 -10.236 -10.232 -10.222 -10.199 -10.198 -10.197  -0.988
 -0.816  -0.763  -0.684  -0.625  -0.571  -0.537  -0.515  -0.497
 -0.440  -0.407  -0.402  -0.386  -0.361  -0.332  -0.296  -0.246
 -0.161

 Beta MOs
 -- Occupied --
-14.359 -10.237 -10.232 -10.215 -10.201 -10.198 -10.189  -0.982
 -0.809  -0.753  -0.681  -0.615  -0.566  -0.533  -0.511  -0.491
 -0.433  -0.405  -0.397  -0.382  -0.355  -0.318  -0.279  -0.235

          Ground-State Mulliken Net Atomic Charges

     Atom                 Charge (a.u.)    Spin (a.u.)
  --------------------------------------------------------
      1 C                    -0.080706       0.005014
      2 C                    -0.129633      -0.074782
      3 C                    -0.156861       0.646152
      4 C                    -0.047552      -0.267902
      5 C                    -0.110587       0.609763
      6 N                    -0.215022       0.067513
      7 H                     0.136451       0.000966
      8 H                     0.155955       0.032278
      9 H                     0.129850      -0.029452
     10 H                     0.128545       0.007644
     11 H                     0.135777      -0.027527
     12 C                    -0.077322       0.022357
     13 H                     0.131104       0.007974
  --------------------------------------------------------
  Sum of atomic charges =     0.000000

                    Cartesian Multipole Moments
 -----------------------------------------------------------------
    Charge (ESU x 10^10)
                 0.0000
    Dipole Moment (Debye)
         X      -0.1405      Y       0.0261      Z      -0.7712
       Tot       0.7844
    Quadrupole Moments (Debye-Ang)
        XX     -40.1349     XY       0.5202     YY     -37.1383
        XZ      -2.6271     YZ       1.4115     ZZ     -44.3203

 Total job time:  18.70s(wall), 12.32s(cpu)
        *  Thank you very much for using Q-Chem.  Have a nice day.  *
