 Q-Chem 5.0, Q-Chem, Inc., Pleasanton, CA (2017)
 Q-Chem 5.0.2 for Intel X86 EM64T Linux

User input:
--------------------------------------------------------------
$molecule
0 2
C        1.5081986894    0.4997781939   -0.6158081128
C       -0.3144812735   -1.1118623273   -0.0729550392
C       -1.5462577553   -1.0165651985    0.5318442963
C       -1.7440569659    0.3528922193    0.8960605933
C       -0.6247857743    1.0457783898    0.5002469973
N        0.2532018843    0.1506950908   -0.0934366051
H        1.7324869037    1.5646597223   -0.5148854201
H        0.2132895599   -1.9553476655   -0.4912325734
H       -2.2330305927   -1.8352831175    0.6961556864
H       -2.6086710770    0.7752292628    1.3885454960
H       -0.3678575231    2.0915646977    0.5847560820
C        2.3756636018   -0.3169773865   -1.1833792941
H        3.3563003226   -0.2445618813   -1.6259121068
$end

$rem
method                b3lyp
basis                 6-31+g(d,p)
unrestricted          true
symmetry              off
sym_ignore            true
incdft                false
incfock               0
scf_convergence       8
thresh                14
jobtype               sp
scf_guess             core
scf_guess_mix         5
scf_algorithm         diis
max_scf_cycles        100
$end

--------------------------------------------------------------

             Standard Nuclear Orientation (Angstroms)
    I     Atom           X                Y                Z
 ----------------------------------------------------------------
    1      C       1.5081986894     0.4997781939    -0.6158081128
    2      C      -0.3144812735    -1.1118623273    -0.0729550392
    3      C      -1.5462577553    -1.0165651985     0.5318442963
    4      C      -1.7440569659     0.3528922193     0.8960605933
    5      C      -0.6247857743     1.0457783898     0.5002469973
    6      N       0.2532018843     0.1506950908    -0.0934366051
    7      H       1.7324869037     1.5646597223    -0.5148854201
    8      H       0.2132895599    -1.9553476655    -0.4912325734
    9      H      -2.2330305927    -1.8352831175     0.6961556864
   10      H      -2.6086710770     0.7752292628     1.3885454960
   11      H      -0.3678575231     2.0915646977     0.5847560820
   12      C       2.3756636018    -0.3169773865    -1.1833792941
   13      H       3.3563003226    -0.2445618813    -1.6259121068
 ----------------------------------------------------------------

   20    -286.8971438044      7.04E-09 Convergence criterion met
 Total energy in the final basis set = -286.89714380

                    Orbital Energies (a.u.)
 --------------------------------------------------------------

 Alpha MOs
 -- Occupied --
-14.405 -10.254 -10.227 -10.218 -10.214 -10.184 -10.183  -1.001
 -0.829  -0.749  -0.732  -0.629  -0.585  -0.554  -0.523  -0.485
 -0.439  -0.436  -0.427  -0.396  -0.385  -0.316  -0.265  -0.237
 -0.224

 Beta MOs
 -- Occupied --
-14.404 -10.256 -10.218 -10.214 -10.212 -10.184 -10.183  -1.000
 -0.824  -0.737  -0.729  -0.617  -0.584  -0.553  -0.510  -0.476
 -0.436  -0.436  -0.425  -0.395  -0.385  -0.313  -0.229  -0.224

          Ground-State Mulliken Net Atomic Charges

     Atom                 Charge (a.u.)    Spin (a.u.)
  --------------------------------------------------------
      1 C                     0.038291      -0.355739
      2 C                    -0.268001       0.016987
      3 C                    -0.059106      -0.018217
      4 C                    -0.088167      -0.016755
      5 C                    -0.193862      -0.016085
      6 N                     0.025577       0.020780
      7 H                     0.142902       0.068400
      8 H                     0.146267      -0.001110
      9 H                     0.125703       0.000991
     10 H                     0.125987       0.000993
     11 H                     0.132538       0.000060
     12 C                    -0.288486       1.300617
     13 H                     0.160356      -0.000922
  --------------------------------------------------------
  Sum of atomic charges =     0.000000

                    Cartesian Multipole Moments
 -----------------------------------------------------------------
    Charge (ESU x 10^10)
                 0.0000
    Dipole Moment (Debye)
         X       1.0699      Y       0.9798      Z      -0.3109
       Tot       1.4837
    Quadrupole Moments (Debye-Ang)
        XX     -38.1938     XY       2.0890     YY     -37.9226
        XZ      -3.7953     YZ       0.8240     ZZ     -45.1897

 Total job time:  55.64s(wall), 98.25s(cpu)
        *  Thank you very much for using Q-Chem.  Have a nice day.  *
