 Q-Chem 5.0, Q-Chem, Inc., Pleasanton, CA (2017)
 Q-Chem 5.0.2 for Intel X86 EM64T Linux

User input:
--------------------------------------------------------------
$molecule
0 2
C        1.3474869406    0.8471001124   -0.5697777411
C        0.2490375546   -1.4171812593   -0.2303871444
C       -0.9302069982   -1.0642963781    0.3547474483
C       -1.3746982504    0.2693859506    0.6698884406
C       -0.7127301464    1.4634708896    0.4556439758
N        0.4884936252    1.7744687665   -0.0859559543
H        2.2580764442    1.3017070838   -0.9663872920
H        0.4252343762   -2.4780783497   -0.3966659290
H       -1.6166538675   -1.8670772986    0.6162310157
H       -2.3528024560    0.3518423940    1.1377209736
H       -1.2544346136    2.3530580177    0.7845821709
C        1.3014918557   -0.5316964602   -0.6593645415
H        2.1717055355   -1.0027034685   -1.1102754222
****
C        1.5318036026    0.2376704625   -0.7051446845
C       -0.2663822870   -1.2891438191    0.0244490077
C       -1.4968454115   -1.1576114542    0.6171748834
C       -1.7176875461    0.2385673433    0.8317602775
C       -0.6162002806    0.9098443364    0.3620420183
N        0.2780124456   -0.0237771152   -0.1326696085
H        2.0512690981   -0.6709624628   -1.0213829841
H        0.2796264255   -2.1623311283   -0.3036296638
H       -2.1671552187   -1.9674156180    0.8716009903
H       -2.5902095825    0.6943491784    1.2804741772
H       -0.3749725142    1.9618162106    0.3294628536
C        2.0836501416    1.4231165387   -0.8718502313
H        3.0050911270    1.8058775279   -1.2822870359
$end

$rem
method                b3lyp
basis                 6-31g(d)
unrestricted          true
symmetry              off
sym_ignore            true
incdft                false
incfock               0
scf_convergence       8
thresh                14
jobtype               fsm
scf_guess             core
scf_guess_mix         5
scf_algorithm         diis
max_scf_cycles        100
fsm_nnode             21
fsm_ngrad             6
fsm_mode              2
fsm_opt_mode          2
$end

--------------------------------------------------------------

   23    -286.9243464889      3.17E-09 Convergence criterion met
 Total energy in the final basis set = -286.92434649
   22    -286.8723884470      4.06E-09 Convergence criterion met
 Total energy in the final basis set = -286.87238845
   22    -286.9117854142      7.37E-09 Convergence criterion met
 Total energy in the final basis set = -286.91178541
   23    -286.9163452254      8.45E-09 Convergence criterion met
 Total energy in the final basis set = -286.91634523
   22    -286.8523594894      5.50E-09 Convergence criterion met
 Total energy in the final basis set = -286.85235949
   22    -286.8627268290      6.04E-09 Convergence criterion met
 Total energy in the final basis set = -286.86272683
   24    -286.8896947017      5.46E-09 Convergence criterion met
 Total energy in the final basis set = -286.88969470
   23    -286.8948359514      5.54E-09 Convergence criterion met
 Total energy in the final basis set = -286.70037770
   29    -286.7007480536      2.85E-09 Convergence criterion met
 Total energy in the final basis set = -286.70074805
   29    -286.7004122799      3.04E-09 Convergence criterion met
 Total energy in the final basis set = -286.70041228
   29    -286.7007183902      2.73E-09 Convergence criterion met
 Total energy in the final basis set = -286.70071839
   29    -286.7004678029      3.00E-09 Convergence criterion met
 Total energy in the final basis set = -286.70046780
   29    -286.7006694314      2.65E-09 Convergence criterion met
 Total energy in the final basis set = -286.70066943
   29    -286.7005108732      2.96E-09 Convergence criterion met
 Total energy in the final basis set = -286.70051087
   29    -286.7006322034      2.66E-09 Convergence criterion met
 Total energy in the final basis set = -286.70063220

                    Orbital Energies (a.u.)
 --------------------------------------------------------------

 Alpha MOs
 -- Occupied --
-14.339 -10.241 -10.234 -10.220 -10.200 -10.198 -10.187  -0.943
 -0.807  -0.762  -0.684  -0.623  -0.556  -0.529  -0.498  -0.476
 -0.433  -0.404  -0.401  -0.376  -0.318  -0.288  -0.248  -0.193
 -0.183

 Beta MOs
 -- Occupied --
-14.333 -10.243 -10.233 -10.222 -10.200 -10.193 -10.178  -0.933
 -0.801  -0.758  -0.671  -0.614  -0.552  -0.528  -0.492  -0.471
 -0.425  -0.404  -0.398  -0.367  -0.314  -0.269  -0.227  -0.183

          Ground-State Mulliken Net Atomic Charges

     Atom                 Charge (a.u.)    Spin (a.u.)
  --------------------------------------------------------
      1 C                     0.014141      -0.117671
      2 C                    -0.117367       0.102558
      3 C                    -0.120929      -0.140605
      4 C                    -0.156371       0.469565
      5 C                     0.076771      -0.140533
      6 N                    -0.333404       0.285485
      7 H                     0.155919       0.025023
      8 H                     0.158806      -0.026147
      9 H                     0.149103      -0.009390
     10 H                     0.139108      -0.023185
     11 H                     0.141196       0.007124
     12 C                    -0.241474       0.552918
     13 H                     0.134502       0.014858
  --------------------------------------------------------
  Sum of atomic charges =    -0.000000

                    Cartesian Multipole Moments
 -----------------------------------------------------------------
    Charge (ESU x 10^10)
                -0.0000
    Dipole Moment (Debye)
         X      -0.3270      Y       0.3717      Z       1.2411
       Tot       1.3362
    Quadrupole Moments (Debye-Ang)
        XX     -36.3770     XY       0.1133     YY     -36.7147
        XZ      -2.0979     YZ       0.0804     ZZ     -42.7928

             Standard Nuclear Orientation (Angstroms)
    I     Atom           X                Y                Z
 ----------------------------------------------------------------
    1      C       1.5650218825     0.6261808337    -0.3924519307
    2      C      -0.0187843361    -1.0613368149    -0.4313665440
    3      C      -1.1518050304    -0.9704753334     0.3427699214
    4      C      -1.6920230221     0.2594126296     0.7560827256
    5      C      -0.7424204607     1.3132333662     0.5597791731
    6      N       0.3999731495     0.8210763411     0.2741985528
    7      H       2.4795259045     1.0613257086     0.0063376464
    8      H       0.5753383547    -1.9825358805    -0.5038920963
    9      H      -1.6354254658    -1.9117319738     0.6601866457
   10      H      -2.6520048374     0.4256135093     1.2417782840
   11      H      -0.9689327807     2.3794864227     0.5867541948
   12      C       1.5196081317    -0.4637797627    -1.1565894860
   13      H       2.2750487701    -0.7351773627    -1.9081263487
 ----------------------------------------------------------------

 Total job time:  8090.80s(wall), 8267.57s(cpu)
        *  Thank you very much for using Q-Chem.  Have a nice day.  *
