 Q-Chem 5.0, Q-Chem, Inc., Pleasanton, CA (2017)
 Q-Chem 5.0.2 for Intel X86 EM64T Linux

User input:
--------------------------------------------------------------
$molecule
0 2
C        1.5326088813    0.5111423152   -0.5536540768
C       -0.1265399189   -1.1398496877    0.2295123564
C       -1.4445914619   -1.0738595540    0.6044091356
C       -1.7723202020    0.3112957003    0.7811525652
C       -0.6368048121    1.0386415486    0.5173031815
N        0.3749157508    0.1496884889    0.1735713919
H        2.0004529056    1.4492831627   -0.2343448241
H        0.5225628857   -1.9765238891    0.0230183060
H       -2.1046885642   -1.9201502472    0.7457312651
H       -2.7334800976    0.7168542150    1.0636814410
H       -0.4583459077    2.1029138578    0.5132275894
C        2.0013494332   -0.2117859173   -1.5534766767
H        2.7980013663   -0.1963583132   -2.2746709195
$end

$rem
method                b3lyp
basis                 6-31+g(d,p)
unrestricted          true
symmetry              off
sym_ignore            true
incdft                false
incfock               0
scf_convergence       8
thresh                14
jobtype               opt
scf_guess             read
scf_algorithm         diis
max_scf_cycles        100
geom_opt_max_cycles   300
$end

--------------------------------------------------------------

   19    -286.8924646107      8.97E-09 Convergence criterion met
 Total energy in the final basis set = -286.89246461
   14    -286.8943732542      7.39E-09 Convergence criterion met
 Total energy in the final basis set = -286.89437325
   14    -286.8956869532      9.47E-09 Convergence criterion met
 Total energy in the final basis set = -286.89568695
   15    -286.8965262677      2.17E-09 Convergence criterion met
 Total energy in the final basis set = -286.89652627
   14    -286.8969638771      9.86E-09 Convergence criterion met
 Total energy in the final basis set = -286.89696388
   13    -286.8970865152      7.95E-09 Convergence criterion met
 Total energy in the final basis set = -286.89708652
   13    -286.8971143552      2.13E-09 Convergence criterion met
 Total energy in the final basis set = -286.89711436
   13    -286.8971259159      2.01E-09 Convergence criterion met
 Total energy in the final basis set = -286.89712592
   10    -286.8971313098      8.90E-09 Convergence criterion met
 Total energy in the final basis set = -286.89713131

             Standard Nuclear Orientation (Angstroms)
    I     Atom           X                Y                Z
 ----------------------------------------------------------------
    1      C       1.4468779445     0.5129832081    -0.7157470569
    2      C      -0.2684014694    -1.1459322290     0.0052095437
    3      C      -1.4721914848    -1.0718652226     0.6667543500
    4      C      -1.7155468708     0.3052946709     0.9686160531
    5      C      -0.6505859596     1.0241907295     0.4801312817
    6      N       0.2380404530     0.1373751989    -0.1100765256
    7      H       1.6263049498     1.5904864683    -0.6799138671
    8      H       0.2769254355    -1.9870920709    -0.3948545748
    9      H      -2.1108800496    -1.9099022431     0.9090706131
   10      H      -2.5734487243     0.7155233109     1.4825794323
   11      H      -0.4389302346     2.0833344781     0.4967316853
   12      C       2.3218172737    -0.2930875998    -1.2870106221
   13      H       3.2731389951    -0.2000170195    -1.7860295777
 ----------------------------------------------------------------

   10    -286.8971320831      8.88E-09 Convergence criterion met
 Total energy in the final basis set = -286.89713208
 Final energy is   -286.897132083134
 **  OPTIMIZATION CONVERGED  **

                    Orbital Energies (a.u.)
 --------------------------------------------------------------

 Alpha MOs
 -- Occupied --
-14.405 -10.254 -10.227 -10.218 -10.214 -10.184 -10.183  -1.001
 -0.829  -0.749  -0.732  -0.629  -0.585  -0.554  -0.523  -0.485
 -0.439  -0.436  -0.427  -0.396  -0.385  -0.316  -0.265  -0.237
 -0.224

 Beta MOs
 -- Occupied --
-14.404 -10.256 -10.218 -10.214 -10.212 -10.184 -10.183  -1.000
 -0.824  -0.737  -0.730  -0.617  -0.584  -0.553  -0.510  -0.476
 -0.436  -0.436  -0.425  -0.395  -0.385  -0.313  -0.229  -0.224

          Ground-State Mulliken Net Atomic Charges

     Atom                 Charge (a.u.)    Spin (a.u.)
  --------------------------------------------------------
      1 C                     0.039014      -0.356356
      2 C                    -0.268072       0.016949
      3 C                    -0.058779      -0.018337
      4 C                    -0.087965      -0.016770
      5 C                    -0.193910      -0.016169
      6 N                     0.026049       0.020733
      7 H                     0.142827       0.068454
      8 H                     0.146280      -0.001100
      9 H                     0.125670       0.000993
     10 H                     0.125995       0.000992
     11 H                     0.132504       0.000057
     12 C                    -0.289966       1.301468
     13 H                     0.160353      -0.000914
  --------------------------------------------------------
  Sum of atomic charges =    -0.000000

                    Cartesian Multipole Moments
 -----------------------------------------------------------------
    Charge (ESU x 10^10)
                -0.0000
    Dipole Moment (Debye)
         X       1.0046      Y       1.0088      Z      -0.4163
       Tot       1.4833
    Quadrupole Moments (Debye-Ang)
        XX     -38.8094     XY       1.8485     YY     -37.7263
        XZ      -4.2548     YZ       0.1658     ZZ     -44.8251

 Total job time:  427.39s(wall), 825.80s(cpu)
        *  Thank you very much for using Q-Chem.  Have a nice day.  *
