 Q-Chem 5.0, Q-Chem, Inc., Pleasanton, CA (2017)
 Q-Chem 5.0.2 for Intel X86 EM64T Linux

User input:
--------------------------------------------------------------
$molecule
0 2
C        1.5274819430    0.6164978298   -0.4609263992
C        0.1637743143   -0.9918618398    0.1782326539
C       -1.2444471552   -1.0214135441    0.2321067793
C       -1.6893703191    0.2843323370    0.5736893981
C       -0.5827810601    1.0915903181    0.7432211409
N        0.5751960187    0.3322982669    0.5771327680
H        2.1856546774    1.4796601691   -0.4011169159
H        0.8071303917   -1.8269028672    0.4304555562
H       -1.8635983016   -1.8980535425    0.0976529761
H       -2.7175190008    0.5939976937    0.7123091589
H       -0.5194719889    2.1565481259    0.9184615217
C        1.3787127891   -0.3675397618   -1.3437596245
H        1.9323579513   -0.6878615021   -2.2219982755
$end

$rem
method                b3lyp
basis                 6-31+g(d,p)
unrestricted          true
symmetry              off
sym_ignore            true
incdft                false
incfock               0
scf_convergence       8
thresh                14
jobtype               rpath
scf_guess             core
scf_guess_mix         5
scf_algorithm         diis
max_scf_cycles        100
rpath_direction       1
rpath_tol_displacement 1000
rpath_max_cycles      50
geom_opt_max_cycles   300
geom_opt_hessian      read
$end

--------------------------------------------------------------

   23    -286.8545406148      3.84E-09 Convergence criterion met
 Total energy in the final basis set = -286.85454061
   22    -286.8556735275      7.62E-09 Convergence criterion met
 Total energy in the final basis set = -286.85567353
   22    -286.8553510227      6.92E-09 Convergence criterion met
 Total energy in the final basis set = -286.85535102
   22    -286.8556770808      7.57E-09 Convergence criterion met
 Total energy in the final basis set = -286.85567708
   22    -286.8582402224      4.66E-09 Convergence criterion met
 Total energy in the final basis set = -286.85824022
   23    -286.8574736808      4.95E-09 Convergence criterion met
 Total energy in the final basis set = -286.85747368
   22    -286.8582619937      4.67E-09 Convergence criterion met
 Total energy in the final basis set = -286.85826199
   23    -286.8604742228      4.11E-09 Convergence criterion met
 Total energy in the final basis set = -286.88502498
   22    -286.8854411305      7.04E-09 Convergence criterion met
 Total energy in the final basis set = -286.88544113
   22    -286.8853966879      7.65E-09 Convergence criterion met
 Total energy in the final basis set = -286.88539669
   22    -286.8854461846      7.18E-09 Convergence criterion met
 Total energy in the final basis set = -286.88544618
   22    -286.8818299644      8.99E-09 Convergence criterion met
 Total energy in the final basis set = -286.88182996
   22    -286.8854489082      7.21E-09 Convergence criterion met
 Total energy in the final basis set = -286.88544891
   22    -286.8854487682      7.20E-09 Convergence criterion met
 Total energy in the final basis set = -286.88544877
   22    -286.8854494387      7.20E-09 Convergence criterion met
 Total energy in the final basis set = -286.88544944

                    Orbital Energies (a.u.)
 --------------------------------------------------------------

 Alpha MOs
 -- Occupied --
-14.362 -10.236 -10.232 -10.222 -10.199 -10.198 -10.197  -0.988
 -0.816  -0.763  -0.684  -0.625  -0.571  -0.537  -0.515  -0.497
 -0.440  -0.407  -0.402  -0.386  -0.361  -0.332  -0.296  -0.246
 -0.161

 Beta MOs
 -- Occupied --
-14.359 -10.237 -10.232 -10.215 -10.201 -10.198 -10.189  -0.982
 -0.809  -0.753  -0.681  -0.615  -0.566  -0.533  -0.511  -0.491
 -0.433  -0.405  -0.397  -0.382  -0.355  -0.318  -0.279  -0.235

          Ground-State Mulliken Net Atomic Charges

     Atom                 Charge (a.u.)    Spin (a.u.)
  --------------------------------------------------------
      1 C                    -0.080706       0.005036
      2 C                    -0.129633      -0.074778
      3 C                    -0.156860       0.646155
      4 C                    -0.047552      -0.267907
      5 C                    -0.110587       0.609765
      6 N                    -0.215022       0.067510
      7 H                     0.136451       0.000965
      8 H                     0.155955       0.032278
      9 H                     0.129850      -0.029452
     10 H                     0.128545       0.007645
     11 H                     0.135777      -0.027527
     12 C                    -0.077322       0.022336
     13 H                     0.131104       0.007975
  --------------------------------------------------------
  Sum of atomic charges =    -0.000000

                    Cartesian Multipole Moments
 -----------------------------------------------------------------
    Charge (ESU x 10^10)
                -0.0000
    Dipole Moment (Debye)
         X      -0.1405      Y       0.0261      Z      -0.7712
       Tot       0.7843
    Quadrupole Moments (Debye-Ang)
        XX     -40.1339     XY       0.5227     YY     -37.1392
        XZ      -2.6247     YZ       1.4257     ZZ     -44.3245

             Standard Nuclear Orientation (Angstroms)
    I     Atom           X                Y                Z
 ----------------------------------------------------------------
    1      C       1.5274819430     0.6164978298    -0.4609263992
    2      C       0.1637743143    -0.9918618398     0.1782326539
    3      C      -1.2444471552    -1.0214135441     0.2321067793
    4      C      -1.6893703191     0.2843323370     0.5736893981
    5      C      -0.5827810601     1.0915903181     0.7432211409
    6      N       0.5751960187     0.3322982669     0.5771327680
    7      H       2.1856546774     1.4796601691    -0.4011169159
    8      H       0.8071303917    -1.8269028672     0.4304555562
    9      H      -1.8635983016    -1.8980535425     0.0976529761
   10      H      -2.7175190008     0.5939976937     0.7123091589
   11      H      -0.5194719889     2.1565481259     0.9184615217
   12      C       1.3787127891    -0.3675397618    -1.3437596245
   13      H       1.9323579513    -0.6878615021    -2.2219982755
 ----------------------------------------------------------------

 Total job time:  23141.67s(wall), 41923.45s(cpu)
        *  Thank you very much for using Q-Chem.  Have a nice day.  *
