 Q-Chem 5.0, Q-Chem, Inc., Pleasanton, CA (2017)
 Q-Chem 5.0.2 for Intel X86 EM64T Linux

User input:
--------------------------------------------------------------
$molecule
0 2
C        1.3472515847    0.8471269015   -0.5704831078
C        0.2493269033   -1.4171693927   -0.2298456718
C       -0.9303587591   -1.0642376942    0.3544671919
C       -1.3751082017    0.2694510511    0.6690993065
C       -0.7124542785    1.4634158877    0.4565457979
N        0.4890174313    1.7744295363   -0.0849378111
H        2.2578093568    1.3015884455   -0.9674658055
H        0.4258924868   -2.4781684505   -0.3950965960
H       -1.6167315406   -1.8670413326    0.6160883127
H       -2.3535799602    0.3520229829    1.1361447548
H       -1.2541165101    2.3528849344    0.7859345114
C        1.3014963144   -0.5317091505   -0.6595939709
H        2.1715551728   -1.0025937188   -1.1108569119
$end

$rem
method                b3lyp
basis                 6-31g(d)
unrestricted          true
symmetry              off
sym_ignore            true
incdft                false
incfock               0
scf_convergence       8
thresh                14
jobtype               opt
scf_guess             core
scf_guess_mix         5
scf_algorithm         diis
max_scf_cycles        100
geom_opt_max_cycles   300
$end

--------------------------------------------------------------

   23    -286.9243457448      3.26E-09 Convergence criterion met
 Total energy in the final basis set = -286.92434574

             Standard Nuclear Orientation (Angstroms)
    I     Atom           X                Y                Z
 ----------------------------------------------------------------
    1      C       1.3474869406     0.8471001124    -0.5697777411
    2      C       0.2490375546    -1.4171812593    -0.2303871444
    3      C      -0.9302069982    -1.0642963781     0.3547474483
    4      C      -1.3746982504     0.2693859506     0.6698884406
    5      C      -0.7127301464     1.4634708896     0.4556439758
    6      N       0.4884936252     1.7744687665    -0.0859559543
    7      H       2.2580764442     1.3017070838    -0.9663872920
    8      H       0.4252343762    -2.4780783497    -0.3966659290
    9      H      -1.6166538675    -1.8670772986     0.6162310157
   10      H      -2.3528024560     0.3518423940     1.1377209736
   11      H      -1.2544346136     2.3530580177     0.7845821709
   12      C       1.3014918557    -0.5316964602    -0.6593645415
   13      H       2.1717055355    -1.0027034685    -1.1102754222
 ----------------------------------------------------------------

   18    -286.9243464889      2.97E-09 Convergence criterion met
 Total energy in the final basis set = -286.92434649
 Final energy is   -286.924346488882
 **  OPTIMIZATION CONVERGED  **

                    Orbital Energies (a.u.)
 --------------------------------------------------------------

 Alpha MOs
 -- Occupied --
-14.322 -10.232 -10.232 -10.212 -10.211 -10.201 -10.201  -0.922
 -0.818  -0.784  -0.693  -0.667  -0.551  -0.537  -0.518  -0.449
 -0.439  -0.414  -0.394  -0.387  -0.349  -0.322  -0.299  -0.251
 -0.162

 Beta MOs
 -- Occupied --
-14.314 -10.233 -10.233 -10.210 -10.210 -10.196 -10.196  -0.911
 -0.809  -0.777  -0.681  -0.665  -0.546  -0.535  -0.514  -0.447
 -0.438  -0.411  -0.383  -0.373  -0.348  -0.295  -0.276  -0.241

          Ground-State Mulliken Net Atomic Charges

     Atom                 Charge (a.u.)    Spin (a.u.)
  --------------------------------------------------------
      1 C                     0.035400      -0.113223
      2 C                    -0.111254       0.092580
      3 C                    -0.111333       0.094872
      4 C                    -0.131221       0.345940
      5 C                     0.035318      -0.112040
      6 N                    -0.423205       0.387014
      7 H                     0.142650       0.003432
      8 H                     0.141957      -0.006581
      9 H                     0.141912      -0.006690
     10 H                     0.134350      -0.018284
     11 H                     0.142626       0.003375
     12 C                    -0.131569       0.347987
     13 H                     0.134369      -0.018381
  --------------------------------------------------------
  Sum of atomic charges =    -0.000000

                    Cartesian Multipole Moments
 -----------------------------------------------------------------
    Charge (ESU x 10^10)
                -0.0000
    Dipole Moment (Debye)
         X      -0.5942      Y      -2.1607      Z       0.1046
       Tot       2.2433
    Quadrupole Moments (Debye-Ang)
        XX     -36.5030     XY      -1.7823     YY     -41.8190
        XZ      -3.3946     YZ       0.9520     ZZ     -41.6765

 Total job time:  142.62s(wall), 122.87s(cpu)
        *  Thank you very much for using Q-Chem.  Have a nice day.  *
