 Q-Chem 5.0, Q-Chem, Inc., Pleasanton, CA (2017)
 Q-Chem 5.0.2 for Intel X86 EM64T Linux

User input:
--------------------------------------------------------------
$molecule
0 2
C        1.5317255290    0.2376008110   -0.7058510518
C       -0.2661708968   -1.2894039169    0.0255619877
C       -1.4974192795   -1.1576099233    0.6166321554
C       -1.7179380266    0.2386753642    0.8308818696
C       -0.6150406583    0.9095371783    0.3636120392
N        0.2783286197   -0.0241192553   -0.1324488425
H        2.0513695093   -0.6709919295   -1.0219191142
H        0.2800769561   -2.1626205416   -0.3019132956
H       -2.1681105839   -1.9672948660    0.8706713154
H       -2.5907345715    0.6946207048    1.2788532861
H       -0.3732155450    1.9614147827    0.3314674983
C        2.0834008902    1.4231670794   -0.8718891831
H        3.0037280572    1.8070245123   -1.2836586644
$end

$rem
method                b3lyp
basis                 6-31g(d)
unrestricted          true
symmetry              off
sym_ignore            true
incdft                false
incfock               0
scf_convergence       8
thresh                14
jobtype               opt
scf_guess             core
scf_guess_mix         5
scf_algorithm         diis
max_scf_cycles        100
geom_opt_max_cycles   300
$end

--------------------------------------------------------------

   24    -286.8723878747      3.12E-09 Convergence criterion met
 Total energy in the final basis set = -286.87238787

             Standard Nuclear Orientation (Angstroms)
    I     Atom           X                Y                Z
 ----------------------------------------------------------------
    1      C       1.5318036026     0.2376704625    -0.7051446845
    2      C      -0.2663822870    -1.2891438191     0.0244490077
    3      C      -1.4968454115    -1.1576114542     0.6171748834
    4      C      -1.7176875461     0.2385673433     0.8317602775
    5      C      -0.6162002806     0.9098443364     0.3620420183
    6      N       0.2780124456    -0.0237771152    -0.1326696085
    7      H       2.0512690981    -0.6709624628    -1.0213829841
    8      H       0.2796264255    -2.1623311283    -0.3036296638
    9      H      -2.1671552187    -1.9674156180     0.8716009903
   10      H      -2.5902095825     0.6943491784     1.2804741772
   11      H      -0.3749725142     1.9618162106     0.3294628536
   12      C       2.0836501416     1.4231165387    -0.8718502313
   13      H       3.0050911270     1.8058775279    -1.2822870359
 ----------------------------------------------------------------

   16    -286.8723883492      2.82E-09 Convergence criterion met
 Total energy in the final basis set = -286.87238835
 Final energy is   -286.872388349239
 **  OPTIMIZATION CONVERGED  **

                    Orbital Energies (a.u.)
 --------------------------------------------------------------

 Alpha MOs
 -- Occupied --
-14.392 -10.242 -10.214 -10.205 -10.201 -10.171 -10.170  -0.988
 -0.817  -0.737  -0.720  -0.618  -0.574  -0.544  -0.513  -0.476
 -0.428  -0.423  -0.417  -0.386  -0.374  -0.303  -0.255  -0.224
 -0.210

 Beta MOs
 -- Occupied --
-14.391 -10.243 -10.205 -10.201 -10.198 -10.171 -10.170  -0.987
 -0.812  -0.725  -0.717  -0.605  -0.573  -0.543  -0.500  -0.466
 -0.424  -0.424  -0.414  -0.385  -0.374  -0.301  -0.216  -0.211

          Ground-State Mulliken Net Atomic Charges

     Atom                 Charge (a.u.)    Spin (a.u.)
  --------------------------------------------------------
      1 C                     0.068186      -0.140507
      2 C                     0.027607      -0.002601
      3 C                    -0.193502      -0.005411
      4 C                    -0.186545      -0.008644
      5 C                     0.037284       0.008946
      6 N                    -0.401249       0.019482
      7 H                     0.163165       0.068835
      8 H                     0.144886       0.000096
      9 H                     0.128606       0.001021
     10 H                     0.128867       0.000824
     11 H                     0.154924       0.000532
     12 C                    -0.244497       1.062439
     13 H                     0.172268      -0.005014
  --------------------------------------------------------
  Sum of atomic charges =    -0.000000

                    Cartesian Multipole Moments
 -----------------------------------------------------------------
    Charge (ESU x 10^10)
                -0.0000
    Dipole Moment (Debye)
         X       1.2465      Y      -0.3574      Z      -0.6240
       Tot       1.4391
    Quadrupole Moments (Debye-Ang)
        XX     -36.3870     XY      -0.1617     YY     -37.2210
        XZ      -4.0458     YZ       0.6641     ZZ     -42.9059

 Total job time:  159.77s(wall), 119.05s(cpu)
        *  Thank you very much for using Q-Chem.  Have a nice day.  *
