 Q-Chem 5.0, Q-Chem, Inc., Pleasanton, CA (2017)
 Q-Chem 5.0.2 for Intel X86 EM64T Linux

User input:
--------------------------------------------------------------
$molecule
0 2
C        1.5262957913    0.6136739264   -0.4650169551
C        0.1600737586   -0.9909179551    0.1758882791
C       -1.2457316191   -1.0203329504    0.2327119329
C       -1.6897314264    0.2845435271    0.5748029694
C       -0.5837948086    1.0891698906    0.7415359908
N        0.5739651281    0.3313355522    0.5752743947
H        2.1861888103    1.4759968593   -0.3973042306
H        0.8036727333   -1.8256845664    0.4301929459
H       -1.8653877841   -1.8982966683    0.1053484984
H       -2.7180973974    0.5935213276    0.7178410443
H       -0.5181794239    2.1551783193    0.9130901090
C        1.3784261887   -0.3672362114   -1.3475018027
H        1.9454203091   -0.6796593679   -2.2214024380
$end

$rem
method                b3lyp
basis                 6-31+g(d,p)
unrestricted          true
symmetry              off
sym_ignore            true
incdft                false
incfock               0
scf_convergence       8
thresh                14
jobtype               freq
scf_guess             read
scf_algorithm         diis
max_scf_cycles        100
$end

--------------------------------------------------------------

             Standard Nuclear Orientation (Angstroms)
    I     Atom           X                Y                Z
 ----------------------------------------------------------------
    1      C       1.5262957913     0.6136739264    -0.4650169551
    2      C       0.1600737586    -0.9909179551     0.1758882791
    3      C      -1.2457316191    -1.0203329504     0.2327119329
    4      C      -1.6897314264     0.2845435271     0.5748029694
    5      C      -0.5837948086     1.0891698906     0.7415359908
    6      N       0.5739651281     0.3313355522     0.5752743947
    7      H       2.1861888103     1.4759968593    -0.3973042306
    8      H       0.8036727333    -1.8256845664     0.4301929459
    9      H      -1.8653877841    -1.8982966683     0.1053484984
   10      H      -2.7180973974     0.5935213276     0.7178410443
   11      H      -0.5181794239     2.1551783193     0.9130901090
   12      C       1.3784261887    -0.3672362114    -1.3475018027
   13      H       1.9454203091    -0.6796593679    -2.2214024380
 ----------------------------------------------------------------

    2    -286.8545006978      7.42E-10 Convergence criterion met
 Total energy in the final basis set = -286.85450070

                    Orbital Energies (a.u.)
 --------------------------------------------------------------

 Alpha MOs
 -- Occupied --
-14.380 -10.238 -10.230 -10.230 -10.202 -10.199 -10.198  -0.996
 -0.820  -0.751  -0.710  -0.611  -0.582  -0.554  -0.516  -0.491
 -0.435  -0.420  -0.410  -0.399  -0.368  -0.305  -0.286  -0.248
 -0.172

 Beta MOs
 -- Occupied --
-14.378 -10.240 -10.231 -10.226 -10.200 -10.193 -10.192  -0.992
 -0.814  -0.743  -0.705  -0.601  -0.577  -0.549  -0.511  -0.484
 -0.427  -0.417  -0.408  -0.396  -0.361  -0.294  -0.259  -0.235

          Ground-State Mulliken Net Atomic Charges

     Atom                 Charge (a.u.)    Spin (a.u.)
  --------------------------------------------------------
      1 C                    -0.133795      -0.094511
      2 C                    -0.331154      -0.166519
      3 C                    -0.022934       0.377914
      4 C                    -0.108024      -0.121685
      5 C                    -0.041762       0.310018
      6 N                    -0.055611       0.044623
      7 H                     0.135674       0.016463
      8 H                     0.163109       0.022997
      9 H                     0.131420      -0.017224
     10 H                     0.131896       0.002315
     11 H                     0.138982      -0.013988
     12 C                    -0.136741       0.616095
     13 H                     0.128939       0.023502
  --------------------------------------------------------
  Sum of atomic charges =     0.000000

                    Cartesian Multipole Moments
 -----------------------------------------------------------------
    Charge (ESU x 10^10)
                 0.0000
    Dipole Moment (Debye)
         X      -0.0773      Y       0.3905      Z       0.1418
       Tot       0.4226
    Quadrupole Moments (Debye-Ang)
        XX     -38.8080     XY       0.7216     YY     -37.1549
        XZ      -1.9616     YZ       1.0161     ZZ     -45.2958

 Frequency:      -598.06                 203.97                 314.59
 Force Cnst:      1.0896                 0.0959                 0.1743
 Red. Mass:       5.1706                 3.9120                 2.9890
 IR Intens:        0.721                  9.569                  7.090
 Frequency:       438.52                 576.98                 665.64
 Force Cnst:      0.3420                 0.4993                 0.3496
 Red. Mass:       3.0185                 2.5457                 1.3393
 IR Intens:        7.149                 12.580                 30.284
 Frequency:       719.71                 730.39                 754.24
 Force Cnst:      1.2338                 0.5689                 0.6250
 Red. Mass:       4.0426                 1.8101                 1.8646
 IR Intens:       36.097                 70.071                 14.659
 Frequency:       776.43                 830.84                 852.69
 Force Cnst:      0.5250                 0.5107                 1.5604
 Red. Mass:       1.4781                 1.2557                 3.6425
 IR Intens:       22.176                 77.491                  3.365
 Frequency:       880.71                 894.43                 910.45
 Force Cnst:      0.7107                 0.6279                 0.9546
 Red. Mass:       1.5551                 1.3322                 1.9545
 IR Intens:        9.728                  3.431                 23.475
 Frequency:       969.63                1068.08                1086.58
 Force Cnst:      0.9351                 1.0876                 0.8972
 Red. Mass:       1.6881                 1.6181                 1.2898
 IR Intens:        4.270                  8.573                  0.555
 Frequency:      1104.08                1192.86                1211.29
 Force Cnst:      1.1868                 2.8282                 1.3741
 Red. Mass:       1.6525                 3.3734                 1.5896
 IR Intens:       17.140                 26.075                 28.678
 Frequency:      1258.36                1311.40                1384.18
 Force Cnst:      1.6927                 2.1770                 3.8734
 Red. Mass:       1.8143                 2.1485                 3.4313
 IR Intens:        1.922                  0.892                 14.226
 Frequency:      1443.30                1522.51                1629.78
 Force Cnst:      2.8493                 5.2051                 9.2080
 Red. Mass:       2.3215                 3.8112                 5.8838
 IR Intens:        7.710                  3.518                 22.758
 Frequency:      3163.64                3199.37                3206.92
 Force Cnst:      6.3753                 6.7270                 6.6145
 Red. Mass:       1.0811                 1.1154                 1.0916
 IR Intens:       11.718                 23.729                  0.676
 Frequency:      3231.78                3252.18                3262.57
 Force Cnst:      6.7054                 6.8220                 6.9151
 Red. Mass:       1.0897                 1.0948                 1.1026
 IR Intens:        4.643                  4.072                  1.989

 STANDARD THERMODYNAMIC QUANTITIES AT   298.15 K  AND     1.00 ATM

   This Molecule has  1 Imaginary Frequencies
   Zero point vibrational energy:       62.970 kcal/mol

   Atom    1 Element C  Has Mass   12.00000
   Atom    2 Element C  Has Mass   12.00000
   Atom    3 Element C  Has Mass   12.00000
   Atom    4 Element C  Has Mass   12.00000
   Atom    5 Element C  Has Mass   12.00000
   Atom    6 Element N  Has Mass   14.00307
   Atom    7 Element H  Has Mass    1.00783
   Atom    8 Element H  Has Mass    1.00783
   Atom    9 Element H  Has Mass    1.00783
   Atom   10 Element H  Has Mass    1.00783
   Atom   11 Element H  Has Mass    1.00783
   Atom   12 Element C  Has Mass   12.00000
   Atom   13 Element H  Has Mass    1.00783
   Molecular Mass:    92.050050 amu
   Principal axes and moments of inertia in amu*Bohr^2:
                             1           2           3
    Eigenvalues --      295.52109   621.21580   809.97676
          X               0.90229     0.12752     0.41184
          Y               0.02075     0.94131    -0.33692
          Z              -0.43063     0.31254     0.84669
   Rotational Symmetry Number is   1
   The Molecule is an Asymmetric Top
   Translational Enthalpy:        0.889 kcal/mol
   Rotational Enthalpy:           0.889 kcal/mol
   Vibrational Enthalpy:         64.484 kcal/mol
   gas constant (RT):             0.592 kcal/mol
   Translational Entropy:        39.471  cal/mol.K
   Rotational Entropy:           26.500  cal/mol.K
   Vibrational Entropy:           7.413  cal/mol.K

   Total Enthalpy:               66.854 kcal/mol
   Total Entropy:                73.384  cal/mol.K

 Total job time:  644.48s(wall), 543.77s(cpu)
        *  Thank you very much for using Q-Chem.  Have a nice day.  *
