 Q-Chem 5.0, Q-Chem, Inc., Pleasanton, CA (2017)
 Q-Chem 5.0.2 for Intel X86 EM64T Linux

User input:
--------------------------------------------------------------
$molecule
0 2
C        1.5650218825    0.6261808337   -0.3924519307
C       -0.0187843361   -1.0613368149   -0.4313665440
C       -1.1518050304   -0.9704753334    0.3427699214
C       -1.6920230221    0.2594126296    0.7560827256
C       -0.7424204607    1.3132333662    0.5597791731
N        0.3999731495    0.8210763411    0.2741985528
H        2.4795259045    1.0613257086    0.0063376464
H        0.5753383547   -1.9825358805   -0.5038920963
H       -1.6354254658   -1.9117319738    0.6601866457
H       -2.6520048374    0.4256135093    1.2417782840
H       -0.9689327807    2.3794864227    0.5867541948
C        1.5196081317   -0.4637797627   -1.1565894860
H        2.2750487701   -0.7351773627   -1.9081263487
$end

$rem
method                b3lyp
basis                 6-31g(d)
unrestricted          true
symmetry              off
sym_ignore            true
incdft                false
incfock               0
scf_convergence       8
thresh                14
jobtype               ts
scf_guess             read
scf_algorithm         diis
max_scf_cycles        100
geom_opt_max_cycles   500
geom_opt_dmax         100
geom_opt_tol_gradient 10
geom_opt_hessian      read
$end

--------------------------------------------------------------

    2    -286.7197938383      4.35E-10 Convergence criterion met
 Total energy in the final basis set = -286.71979384
   18    -286.7233933555      9.53E-09 Convergence criterion met
 Total energy in the final basis set = -286.72339336
   16    -286.7267796845      9.95E-09 Convergence criterion met
 Total energy in the final basis set = -286.72677968
   16    -286.7299564994      7.12E-09 Convergence criterion met
 Total energy in the final basis set = -286.72995650
   17    -286.7327952294      6.03E-09 Convergence criterion met
 Total energy in the final basis set = -286.73279523
   17    -286.7351262806      8.12E-09 Convergence criterion met
 Total energy in the final basis set = -286.73512628
   17    -286.7367450006      8.63E-09 Convergence criterion met
 Total energy in the final basis set = -286.73674500
   17    -286.7376276859      8.25E-09 Convergence criterion met
   14    -286.8304279832      5.17E-09 Convergence criterion met
 Total energy in the final basis set = -286.83042798
   13    -286.8304333952      4.17E-09 Convergence criterion met
 Total energy in the final basis set = -286.83043340
   10    -286.8304337372      7.38E-09 Convergence criterion met
 Total energy in the final basis set = -286.83043374
   12    -286.8304319110      4.13E-09 Convergence criterion met
 Total energy in the final basis set = -286.83043191
   10    -286.8304338166      9.39E-09 Convergence criterion met
 Total energy in the final basis set = -286.83043382
   10    -286.8304338269      3.68E-09 Convergence criterion met
 Total energy in the final basis set = -286.83043383

             Standard Nuclear Orientation (Angstroms)
    I     Atom           X                Y                Z
 ----------------------------------------------------------------
    1      C       1.5262957913     0.6136739264    -0.4650169551
    2      C       0.1600737586    -0.9909179551     0.1758882791
    3      C      -1.2457316191    -1.0203329504     0.2327119329
    4      C      -1.6897314264     0.2845435271     0.5748029694
    5      C      -0.5837948086     1.0891698906     0.7415359908
    6      N       0.5739651281     0.3313355522     0.5752743947
    7      H       2.1861888103     1.4759968593    -0.3973042306
    8      H       0.8036727333    -1.8256845664     0.4301929459
    9      H      -1.8653877841    -1.8982966683     0.1053484984
   10      H      -2.7180973974     0.5935213276     0.7178410443
   11      H      -0.5181794239     2.1551783193     0.9130901090
   12      C       1.3784261887    -0.3672362114    -1.3475018027
   13      H       1.9454203091    -0.6796593679    -2.2214024380
 ----------------------------------------------------------------

    6    -286.8304338305      9.79E-09 Convergence criterion met
 Total energy in the final basis set = -286.83043383
 Final energy is   -286.830433830463
 **  OPTIMIZATION CONVERGED  **

                    Orbital Energies (a.u.)
 --------------------------------------------------------------

 Alpha MOs
 -- Occupied --
-14.366 -10.226 -10.218 -10.217 -10.188 -10.188 -10.186  -0.983
 -0.808  -0.739  -0.698  -0.600  -0.571  -0.544  -0.507  -0.481
 -0.423  -0.410  -0.401  -0.389  -0.357  -0.292  -0.274  -0.234
 -0.159

 Beta MOs
 -- Occupied --
-14.364 -10.228 -10.218 -10.214 -10.189 -10.181 -10.178  -0.978
 -0.802  -0.731  -0.693  -0.590  -0.567  -0.540  -0.502  -0.474
 -0.416  -0.406  -0.398  -0.386  -0.350  -0.281  -0.246  -0.221

          Ground-State Mulliken Net Atomic Charges

     Atom                 Charge (a.u.)    Spin (a.u.)
  --------------------------------------------------------
      1 C                     0.016292      -0.084482
      2 C                    -0.013686      -0.156528
      3 C                    -0.148610       0.359635
      4 C                    -0.142891      -0.094705
      5 C                     0.016427       0.274041
      6 N                    -0.379537       0.068134
      7 H                     0.142556       0.018249
      8 H                     0.176329       0.021678
      9 H                     0.136896      -0.017336
     10 H                     0.137117       0.002199
     11 H                     0.150308      -0.014119
     12 C                    -0.225130       0.598628
     13 H                     0.133929       0.024606
  --------------------------------------------------------
  Sum of atomic charges =    -0.000000

                    Cartesian Multipole Moments
 -----------------------------------------------------------------
    Charge (ESU x 10^10)
                 0.0000
    Dipole Moment (Debye)
         X      -0.0696      Y       0.4167      Z       0.1471
       Tot       0.4474
    Quadrupole Moments (Debye-Ang)
        XX     -37.5551     XY       0.6232     YY     -36.0852
        XZ      -1.8157     YZ       0.8251     ZZ     -43.2576

 Total job time:  3679.34s(wall), 3622.02s(cpu)
        *  Thank you very much for using Q-Chem.  Have a nice day.  *
