 Q-Chem 5.0, Q-Chem, Inc., Pleasanton, CA (2017)
 Q-Chem 5.0.2 for Intel X86 EM64T Linux

User input:
--------------------------------------------------------------
$molecule
0 2
C        1.5262957913    0.6136739264   -0.4650169551
C        0.1600737586   -0.9909179551    0.1758882791
C       -1.2457316191   -1.0203329504    0.2327119329
C       -1.6897314264    0.2845435271    0.5748029694
C       -0.5837948086    1.0891698906    0.7415359908
N        0.5739651281    0.3313355522    0.5752743947
H        2.1861888103    1.4759968593   -0.3973042306
H        0.8036727333   -1.8256845664    0.4301929459
H       -1.8653877841   -1.8982966683    0.1053484984
H       -2.7180973974    0.5935213276    0.7178410443
H       -0.5181794239    2.1551783193    0.9130901090
C        1.3784261887   -0.3672362114   -1.3475018027
H        1.9454203091   -0.6796593679   -2.2214024380
$end

$rem
method                b3lyp
basis                 6-31+g(d,p)
unrestricted          true
symmetry              off
sym_ignore            true
incdft                false
incfock               0
scf_convergence       8
thresh                14
jobtype               sp
scf_guess             core
scf_guess_mix         5
scf_algorithm         diis
max_scf_cycles        100
$end

--------------------------------------------------------------

             Standard Nuclear Orientation (Angstroms)
    I     Atom           X                Y                Z
 ----------------------------------------------------------------
    1      C       1.5262957913     0.6136739264    -0.4650169551
    2      C       0.1600737586    -0.9909179551     0.1758882791
    3      C      -1.2457316191    -1.0203329504     0.2327119329
    4      C      -1.6897314264     0.2845435271     0.5748029694
    5      C      -0.5837948086     1.0891698906     0.7415359908
    6      N       0.5739651281     0.3313355522     0.5752743947
    7      H       2.1861888103     1.4759968593    -0.3973042306
    8      H       0.8036727333    -1.8256845664     0.4301929459
    9      H      -1.8653877841    -1.8982966683     0.1053484984
   10      H      -2.7180973974     0.5935213276     0.7178410443
   11      H      -0.5181794239     2.1551783193     0.9130901090
   12      C       1.3784261887    -0.3672362114    -1.3475018027
   13      H       1.9454203091    -0.6796593679    -2.2214024380
 ----------------------------------------------------------------

   23    -286.8545006976      2.65E-09 Convergence criterion met
 Total energy in the final basis set = -286.85450070

                    Orbital Energies (a.u.)
 --------------------------------------------------------------

 Alpha MOs
 -- Occupied --
-14.380 -10.238 -10.230 -10.230 -10.202 -10.199 -10.198  -0.996
 -0.820  -0.751  -0.710  -0.611  -0.582  -0.554  -0.516  -0.491
 -0.435  -0.420  -0.410  -0.399  -0.368  -0.305  -0.286  -0.248
 -0.172

 Beta MOs
 -- Occupied --
-14.378 -10.240 -10.231 -10.226 -10.200 -10.193 -10.192  -0.992
 -0.814  -0.743  -0.705  -0.601  -0.577  -0.549  -0.511  -0.484
 -0.427  -0.417  -0.408  -0.396  -0.361  -0.294  -0.259  -0.235

          Ground-State Mulliken Net Atomic Charges

     Atom                 Charge (a.u.)    Spin (a.u.)
  --------------------------------------------------------
      1 C                    -0.133795      -0.094512
      2 C                    -0.331154      -0.166518
      3 C                    -0.022934       0.377914
      4 C                    -0.108024      -0.121686
      5 C                    -0.041762       0.310018
      6 N                    -0.055611       0.044623
      7 H                     0.135674       0.016463
      8 H                     0.163109       0.022997
      9 H                     0.131420      -0.017224
     10 H                     0.131896       0.002314
     11 H                     0.138982      -0.013988
     12 C                    -0.136741       0.616096
     13 H                     0.128939       0.023502
  --------------------------------------------------------
  Sum of atomic charges =     0.000000

                    Cartesian Multipole Moments
 -----------------------------------------------------------------
    Charge (ESU x 10^10)
                 0.0000
    Dipole Moment (Debye)
         X      -0.0773      Y       0.3905      Z       0.1418
       Tot       0.4226
    Quadrupole Moments (Debye-Ang)
        XX     -38.8080     XY       0.7216     YY     -37.1549
        XZ      -1.9616     YZ       1.0161     ZZ     -45.2958

 Total job time:  79.69s(wall), 117.70s(cpu)
        *  Thank you very much for using Q-Chem.  Have a nice day.  *
