 Q-Chem 5.0, Q-Chem, Inc., Pleasanton, CA (2017)
 Q-Chem 5.0.2 for Intel X86 EM64T Linux

User input:
--------------------------------------------------------------
$molecule
0 2
C        1.5262957913    0.6136739264   -0.4650169551
C        0.1600737586   -0.9909179551    0.1758882791
C       -1.2457316191   -1.0203329504    0.2327119329
C       -1.6897314264    0.2845435271    0.5748029694
C       -0.5837948086    1.0891698906    0.7415359908
N        0.5739651281    0.3313355522    0.5752743947
H        2.1861888103    1.4759968593   -0.3973042306
H        0.8036727333   -1.8256845664    0.4301929459
H       -1.8653877841   -1.8982966683    0.1053484984
H       -2.7180973974    0.5935213276    0.7178410443
H       -0.5181794239    2.1551783193    0.9130901090
C        1.3784261887   -0.3672362114   -1.3475018027
H        1.9454203091   -0.6796593679   -2.2214024380
$end

$rem
method                b3lyp
basis                 6-31+g(d,p)
unrestricted          true
symmetry              off
sym_ignore            true
incdft                false
incfock               0
scf_convergence       8
thresh                14
jobtype               ts
scf_guess             read
scf_algorithm         diis
max_scf_cycles        100
geom_opt_max_cycles   500
geom_opt_dmax         100
geom_opt_tol_gradient 10
geom_opt_hessian      read
$end

--------------------------------------------------------------

    2    -286.8545006976      2.19E-10 Convergence criterion met
 Total energy in the final basis set = -286.85450070
   13    -286.8545406079      7.37E-09 Convergence criterion met
 Total energy in the final basis set = -286.85454061

             Standard Nuclear Orientation (Angstroms)
    I     Atom           X                Y                Z
 ----------------------------------------------------------------
    1      C       1.5274819430     0.6164978298    -0.4609263992
    2      C       0.1637743143    -0.9918618398     0.1782326539
    3      C      -1.2444471552    -1.0214135441     0.2321067793
    4      C      -1.6893703191     0.2843323370     0.5736893981
    5      C      -0.5827810601     1.0915903181     0.7432211409
    6      N       0.5751960187     0.3322982669     0.5771327680
    7      H       2.1856546774     1.4796601691    -0.4011169159
    8      H       0.8071303917    -1.8269028672     0.4304555562
    9      H      -1.8635983016    -1.8980535425     0.0976529761
   10      H      -2.7175190008     0.5939976937     0.7123091589
   11      H      -0.5194719889     2.1565481259     0.9184615217
   12      C       1.3787127891    -0.3675397618    -1.3437596245
   13      H       1.9323579513    -0.6878615021    -2.2219982755
 ----------------------------------------------------------------

    8    -286.8545406148      6.27E-09 Convergence criterion met
 Total energy in the final basis set = -286.85454061
 Final energy is   -286.854540614811
 **  OPTIMIZATION CONVERGED  **

                    Orbital Energies (a.u.)
 --------------------------------------------------------------

 Alpha MOs
 -- Occupied --
-14.380 -10.238 -10.231 -10.230 -10.202 -10.200 -10.198  -0.996
 -0.820  -0.751  -0.709  -0.611  -0.582  -0.554  -0.517  -0.491
 -0.435  -0.420  -0.410  -0.399  -0.368  -0.305  -0.285  -0.247
 -0.171

 Beta MOs
 -- Occupied --
-14.378 -10.240 -10.232 -10.226 -10.201 -10.193 -10.192  -0.991
 -0.814  -0.742  -0.704  -0.601  -0.577  -0.549  -0.512  -0.484
 -0.427  -0.417  -0.408  -0.396  -0.361  -0.293  -0.259  -0.234

          Ground-State Mulliken Net Atomic Charges

     Atom                 Charge (a.u.)    Spin (a.u.)
  --------------------------------------------------------
      1 C                    -0.133431      -0.094526
      2 C                    -0.331342      -0.167126
      3 C                    -0.023111       0.381498
      4 C                    -0.108635      -0.124437
      5 C                    -0.043155       0.314020
      6 N                    -0.054696       0.045281
      7 H                     0.135938       0.016121
      8 H                     0.163306       0.023380
      9 H                     0.131369      -0.017421
     10 H                     0.131729       0.002396
     11 H                     0.139202      -0.014142
     12 C                    -0.136444       0.612350
     13 H                     0.129269       0.022607
  --------------------------------------------------------
  Sum of atomic charges =     0.000000

                    Cartesian Multipole Moments
 -----------------------------------------------------------------
    Charge (ESU x 10^10)
                 0.0000
    Dipole Moment (Debye)
         X      -0.0689      Y       0.3872      Z       0.1126
       Tot       0.4091
    Quadrupole Moments (Debye-Ang)
        XX     -38.8598     XY       0.7111     YY     -37.1305
        XZ      -1.9461     YZ       1.0618     ZZ     -45.2764

 Total job time:  99.27s(wall), 170.24s(cpu)
        *  Thank you very much for using Q-Chem.  Have a nice day.  *
