 Q-Chem 5.0, Q-Chem, Inc., Pleasanton, CA (2017)
 Q-Chem 5.0.2 for Intel X86 EM64T Linux

User input:
--------------------------------------------------------------
$molecule
0 2
C        1.5650218825    0.6261808337   -0.3924519307
C       -0.0187843361   -1.0613368149   -0.4313665440
C       -1.1518050304   -0.9704753334    0.3427699214
C       -1.6920230221    0.2594126296    0.7560827256
C       -0.7424204607    1.3132333662    0.5597791731
N        0.3999731495    0.8210763411    0.2741985528
H        2.4795259045    1.0613257086    0.0063376464
H        0.5753383547   -1.9825358805   -0.5038920963
H       -1.6354254658   -1.9117319738    0.6601866457
H       -2.6520048374    0.4256135093    1.2417782840
H       -0.9689327807    2.3794864227    0.5867541948
C        1.5196081317   -0.4637797627   -1.1565894860
H        2.2750487701   -0.7351773627   -1.9081263487
$end

$rem
method                b3lyp
basis                 6-31g(d)
unrestricted          true
symmetry              off
sym_ignore            true
incdft                false
incfock               0
scf_convergence       8
thresh                14
jobtype               freq
scf_guess             read
scf_algorithm         diis
max_scf_cycles        100
$end

--------------------------------------------------------------

             Standard Nuclear Orientation (Angstroms)
    I     Atom           X                Y                Z
 ----------------------------------------------------------------
    1      C       1.5650218825     0.6261808337    -0.3924519307
    2      C      -0.0187843361    -1.0613368149    -0.4313665440
    3      C      -1.1518050304    -0.9704753334     0.3427699214
    4      C      -1.6920230221     0.2594126296     0.7560827256
    5      C      -0.7424204607     1.3132333662     0.5597791731
    6      N       0.3999731495     0.8210763411     0.2741985528
    7      H       2.4795259045     1.0613257086     0.0063376464
    8      H       0.5753383547    -1.9825358805    -0.5038920963
    9      H      -1.6354254658    -1.9117319738     0.6601866457
   10      H      -2.6520048374     0.4256135093     1.2417782840
   11      H      -0.9689327807     2.3794864227     0.5867541948
   12      C       1.5196081317    -0.4637797627    -1.1565894860
   13      H       2.2750487701    -0.7351773627    -1.9081263487
 ----------------------------------------------------------------

    2    -286.7197938384      2.34E-09 Convergence criterion met
 Total energy in the final basis set = -286.71979384

                    Orbital Energies (a.u.)
 --------------------------------------------------------------

 Alpha MOs
 -- Occupied --
-14.324 -10.240 -10.225 -10.219 -10.195 -10.192 -10.190  -0.947
 -0.808  -0.771  -0.674  -0.637  -0.550  -0.541  -0.500  -0.478
 -0.437  -0.409  -0.404  -0.378  -0.305  -0.289  -0.276  -0.183
 -0.168

 Beta MOs
 -- Occupied --
-14.318 -10.242 -10.225 -10.214 -10.197 -10.190 -10.184  -0.936
 -0.802  -0.764  -0.662  -0.630  -0.544  -0.537  -0.497  -0.472
 -0.434  -0.405  -0.400  -0.367  -0.296  -0.268  -0.260  -0.175

          Ground-State Mulliken Net Atomic Charges

     Atom                 Charge (a.u.)    Spin (a.u.)
  --------------------------------------------------------
      1 C                     0.087704      -0.005027
      2 C                    -0.096414       0.392166
      3 C                    -0.114103      -0.145877
      4 C                    -0.170280       0.486124
      5 C                     0.084419      -0.138423
      6 N                    -0.374795       0.299189
      7 H                     0.140907       0.000059
      8 H                     0.142207      -0.013443
      9 H                     0.141572       0.004525
     10 H                     0.136978      -0.024664
     11 H                     0.135625       0.009749
     12 C                    -0.267112       0.134839
     13 H                     0.153292       0.000784
  --------------------------------------------------------
  Sum of atomic charges =     0.000000

                    Cartesian Multipole Moments
 -----------------------------------------------------------------
    Charge (ESU x 10^10)
                -0.0000
    Dipole Moment (Debye)
         X       0.0718      Y       0.5092      Z       0.3313
       Tot       0.6117
    Quadrupole Moments (Debye-Ang)
        XX     -36.3663     XY      -0.5498     YY     -38.2236
        XZ      -3.0567     YZ       1.0814     ZZ     -41.7322

 Frequency:      -807.47                -365.89                -224.20
 Force Cnst:      1.1678                 0.2436                 0.0792
 Red. Mass:       3.0400                 3.0884                 2.6729
 IR Intens:        4.058                 23.324                 21.889
 Frequency:       168.65                 413.54                 485.06
 Force Cnst:      0.0425                 0.2559                 0.4847
 Red. Mass:       2.5390                 2.5401                 3.4968
 IR Intens:        9.011                  7.290                 14.100
 Frequency:       569.71                 617.78                 665.85
 Force Cnst:      0.5312                 0.7102                 0.5128
 Red. Mass:       2.7776                 3.1585                 1.9630
 IR Intens:       19.812                 15.396                 20.137
 Frequency:       693.92                 753.77                 843.08
 Force Cnst:      0.4318                 0.5795                 1.2631
 Red. Mass:       1.5219                 1.7310                 3.0161
 IR Intens:       44.944                  0.965                  5.485
 Frequency:       860.51                 887.03                 941.51
 Force Cnst:      0.8913                 0.7981                 0.8210
 Red. Mass:       2.0429                 1.7215                 1.5719
 IR Intens:        0.973                  9.644                 15.089
 Frequency:       962.96                1014.24                1062.88
 Force Cnst:      1.0949                 0.9569                 1.2191
 Red. Mass:       2.0041                 1.5788                 1.8316
 IR Intens:       20.278                 11.202                  4.078
 Frequency:      1095.59                1231.79                1274.56
 Force Cnst:      1.0260                 1.3319                 1.3378
 Red. Mass:       1.4507                 1.4899                 1.3978
 IR Intens:        1.353                  7.041                  9.856
 Frequency:      1337.32                1380.10                1437.16
 Force Cnst:      1.9218                 1.7030                 1.8720
 Red. Mass:       1.8238                 1.5176                 1.5383
 IR Intens:        5.917                 11.138                  4.982
 Frequency:      1488.09                1648.47                1742.66
 Force Cnst:      3.0407                 7.1221                18.0088
 Red. Mass:       2.3306                 4.4483                10.0650
 IR Intens:        7.304                 18.347                113.840
 Frequency:      2984.94                3028.68                3098.60
 Force Cnst:      5.7021                 5.9047                 6.1801
 Red. Mass:       1.0862                 1.0925                 1.0925
 IR Intens:       33.231                 35.575                  2.599
 Frequency:      3122.03                3170.28                3194.60
 Force Cnst:      6.2550                 6.4786                 6.5797
 Red. Mass:       1.0892                 1.0940                 1.0943
 IR Intens:       97.065                 50.174                 15.172

 STANDARD THERMODYNAMIC QUANTITIES AT   298.15 K  AND     1.00 ATM

   This Molecule has  3 Imaginary Frequencies
   Zero point vibrational energy:       60.293 kcal/mol

   Atom    1 Element C  Has Mass   12.00000
   Atom    2 Element C  Has Mass   12.00000
   Atom    3 Element C  Has Mass   12.00000
   Atom    4 Element C  Has Mass   12.00000
   Atom    5 Element C  Has Mass   12.00000
   Atom    6 Element N  Has Mass   14.00307
   Atom    7 Element H  Has Mass    1.00783
   Atom    8 Element H  Has Mass    1.00783
   Atom    9 Element H  Has Mass    1.00783
   Atom   10 Element H  Has Mass    1.00783
   Atom   11 Element H  Has Mass    1.00783
   Atom   12 Element C  Has Mass   12.00000
   Atom   13 Element H  Has Mass    1.00783
   Molecular Mass:    92.050050 amu
   Principal axes and moments of inertia in amu*Bohr^2:
                             1           2           3
    Eigenvalues --      311.94189   614.39941   901.28801
          X               0.89599     0.18373     0.40428
          Y              -0.06745     0.95614    -0.28503
          Z              -0.43892     0.22811     0.86909
   Rotational Symmetry Number is   1
   The Molecule is an Asymmetric Top
   Translational Enthalpy:        0.889 kcal/mol
   Rotational Enthalpy:           0.889 kcal/mol
   Vibrational Enthalpy:         61.693 kcal/mol
   gas constant (RT):             0.592 kcal/mol
   Translational Entropy:        39.471  cal/mol.K
   Rotational Entropy:           26.649  cal/mol.K
   Vibrational Entropy:           6.981  cal/mol.K

   Total Enthalpy:               64.063 kcal/mol
   Total Entropy:                73.101  cal/mol.K

 Total job time:  315.38s(wall), 257.25s(cpu)
        *  Thank you very much for using Q-Chem.  Have a nice day.  *
