 Q-Chem 5.0, Q-Chem, Inc., Pleasanton, CA (2017)
 Q-Chem 5.0.2 for Intel X86 EM64T Linux

User input:
--------------------------------------------------------------
$molecule
0 2
C        1.5650218825    0.6261808337   -0.3924519307
C       -0.0187843361   -1.0613368149   -0.4313665440
C       -1.1518050304   -0.9704753334    0.3427699214
C       -1.6920230221    0.2594126296    0.7560827256
C       -0.7424204607    1.3132333662    0.5597791731
N        0.3999731495    0.8210763411    0.2741985528
H        2.4795259045    1.0613257086    0.0063376464
H        0.5753383547   -1.9825358805   -0.5038920963
H       -1.6354254658   -1.9117319738    0.6601866457
H       -2.6520048374    0.4256135093    1.2417782840
H       -0.9689327807    2.3794864227    0.5867541948
C        1.5196081317   -0.4637797627   -1.1565894860
H        2.2750487701   -0.7351773627   -1.9081263487
$end

$rem
method                b3lyp
basis                 6-31g(d)
unrestricted          true
symmetry              off
sym_ignore            true
incdft                false
incfock               0
scf_convergence       8
thresh                14
jobtype               sp
scf_guess             core
scf_guess_mix         5
scf_algorithm         diis
max_scf_cycles        100
$end

--------------------------------------------------------------

             Standard Nuclear Orientation (Angstroms)
    I     Atom           X                Y                Z
 ----------------------------------------------------------------
    1      C       1.5650218825     0.6261808337    -0.3924519307
    2      C      -0.0187843361    -1.0613368149    -0.4313665440
    3      C      -1.1518050304    -0.9704753334     0.3427699214
    4      C      -1.6920230221     0.2594126296     0.7560827256
    5      C      -0.7424204607     1.3132333662     0.5597791731
    6      N       0.3999731495     0.8210763411     0.2741985528
    7      H       2.4795259045     1.0613257086     0.0063376464
    8      H       0.5753383547    -1.9825358805    -0.5038920963
    9      H      -1.6354254658    -1.9117319738     0.6601866457
   10      H      -2.6520048374     0.4256135093     1.2417782840
   11      H      -0.9689327807     2.3794864227     0.5867541948
   12      C       1.5196081317    -0.4637797627    -1.1565894860
   13      H       2.2750487701    -0.7351773627    -1.9081263487
 ----------------------------------------------------------------

   25    -286.7197938383      8.30E-09 Convergence criterion met
 Total energy in the final basis set = -286.71979384

                    Orbital Energies (a.u.)
 --------------------------------------------------------------

 Alpha MOs
 -- Occupied --
-14.324 -10.240 -10.225 -10.219 -10.195 -10.192 -10.190  -0.947
 -0.808  -0.771  -0.674  -0.637  -0.550  -0.541  -0.500  -0.478
 -0.437  -0.409  -0.404  -0.378  -0.305  -0.289  -0.276  -0.183
 -0.168

 Beta MOs
 -- Occupied --
-14.318 -10.242 -10.225 -10.214 -10.197 -10.190 -10.184  -0.936
 -0.802  -0.764  -0.662  -0.630  -0.544  -0.537  -0.497  -0.472
 -0.434  -0.405  -0.400  -0.367  -0.296  -0.268  -0.260  -0.175

          Ground-State Mulliken Net Atomic Charges

     Atom                 Charge (a.u.)    Spin (a.u.)
  --------------------------------------------------------
      1 C                     0.087704      -0.005026
      2 C                    -0.096414       0.392164
      3 C                    -0.114103      -0.145877
      4 C                    -0.170280       0.486125
      5 C                     0.084419      -0.138424
      6 N                    -0.374795       0.299190
      7 H                     0.140907       0.000059
      8 H                     0.142207      -0.013443
      9 H                     0.141572       0.004525
     10 H                     0.136978      -0.024664
     11 H                     0.135625       0.009749
     12 C                    -0.267112       0.134838
     13 H                     0.153292       0.000784
  --------------------------------------------------------
  Sum of atomic charges =     0.000000

                    Cartesian Multipole Moments
 -----------------------------------------------------------------
    Charge (ESU x 10^10)
                 0.0000
    Dipole Moment (Debye)
         X       0.0718      Y       0.5092      Z       0.3313
       Tot       0.6117
    Quadrupole Moments (Debye-Ang)
        XX     -36.3663     XY      -0.5498     YY     -38.2236
        XZ      -3.0567     YZ       1.0814     ZZ     -41.7322

 Total job time:  71.40s(wall), 66.68s(cpu)
        *  Thank you very much for using Q-Chem.  Have a nice day.  *
