 Q-Chem 5.0, Q-Chem, Inc., Pleasanton, CA (2017)
 Q-Chem 5.0.2 for Intel X86 EM64T Linux

User input:
--------------------------------------------------------------
$molecule
0 2
C        1.5274819430    0.6164978298   -0.4609263992
C        0.1637743143   -0.9918618398    0.1782326539
C       -1.2444471552   -1.0214135441    0.2321067793
C       -1.6893703191    0.2843323370    0.5736893981
C       -0.5827810601    1.0915903181    0.7432211409
N        0.5751960187    0.3322982669    0.5771327680
H        2.1856546774    1.4796601691   -0.4011169159
H        0.8071303917   -1.8269028672    0.4304555562
H       -1.8635983016   -1.8980535425    0.0976529761
H       -2.7175190008    0.5939976937    0.7123091589
H       -0.5194719889    2.1565481259    0.9184615217
C        1.3787127891   -0.3675397618   -1.3437596245
H        1.9323579513   -0.6878615021   -2.2219982755
$end

$rem
method                b3lyp
basis                 6-31+g(d,p)
unrestricted          true
symmetry              off
sym_ignore            true
incdft                false
incfock               0
scf_convergence       8
thresh                14
jobtype               freq
scf_guess             read
scf_algorithm         diis
max_scf_cycles        100
$end

--------------------------------------------------------------

             Standard Nuclear Orientation (Angstroms)
    I     Atom           X                Y                Z
 ----------------------------------------------------------------
    1      C       1.5274819430     0.6164978298    -0.4609263992
    2      C       0.1637743143    -0.9918618398     0.1782326539
    3      C      -1.2444471552    -1.0214135441     0.2321067793
    4      C      -1.6893703191     0.2843323370     0.5736893981
    5      C      -0.5827810601     1.0915903181     0.7432211409
    6      N       0.5751960187     0.3322982669     0.5771327680
    7      H       2.1856546774     1.4796601691    -0.4011169159
    8      H       0.8071303917    -1.8269028672     0.4304555562
    9      H      -1.8635983016    -1.8980535425     0.0976529761
   10      H      -2.7175190008     0.5939976937     0.7123091589
   11      H      -0.5194719889     2.1565481259     0.9184615217
   12      C       1.3787127891    -0.3675397618    -1.3437596245
   13      H       1.9323579513    -0.6878615021    -2.2219982755
 ----------------------------------------------------------------

    2    -286.8545406150      8.45E-10 Convergence criterion met
 Total energy in the final basis set = -286.85454061

                    Orbital Energies (a.u.)
 --------------------------------------------------------------

 Alpha MOs
 -- Occupied --
-14.380 -10.238 -10.231 -10.230 -10.202 -10.200 -10.198  -0.996
 -0.820  -0.751  -0.709  -0.611  -0.582  -0.554  -0.517  -0.491
 -0.435  -0.420  -0.410  -0.399  -0.368  -0.305  -0.285  -0.247
 -0.171

 Beta MOs
 -- Occupied --
-14.378 -10.240 -10.232 -10.226 -10.201 -10.193 -10.192  -0.991
 -0.814  -0.742  -0.704  -0.601  -0.577  -0.549  -0.512  -0.484
 -0.427  -0.417  -0.408  -0.396  -0.361  -0.293  -0.259  -0.234

          Ground-State Mulliken Net Atomic Charges

     Atom                 Charge (a.u.)    Spin (a.u.)
  --------------------------------------------------------
      1 C                    -0.133431      -0.094528
      2 C                    -0.331342      -0.167126
      3 C                    -0.023111       0.381496
      4 C                    -0.108635      -0.124435
      5 C                    -0.043155       0.314018
      6 N                    -0.054696       0.045282
      7 H                     0.135938       0.016121
      8 H                     0.163306       0.023380
      9 H                     0.131369      -0.017421
     10 H                     0.131729       0.002396
     11 H                     0.139202      -0.014142
     12 C                    -0.136444       0.612353
     13 H                     0.129269       0.022607
  --------------------------------------------------------
  Sum of atomic charges =     0.000000

                    Cartesian Multipole Moments
 -----------------------------------------------------------------
    Charge (ESU x 10^10)
                -0.0000
    Dipole Moment (Debye)
         X      -0.0689      Y       0.3872      Z       0.1126
       Tot       0.4091
    Quadrupole Moments (Debye-Ang)
        XX     -38.8598     XY       0.7111     YY     -37.1305
        XZ      -1.9461     YZ       1.0618     ZZ     -45.2764

 Frequency:      -605.21                 205.31                 317.38
 Force Cnst:      1.1158                 0.0958                 0.1761
 Red. Mass:       5.1705                 3.8562                 2.9673
 IR Intens:        0.689                 10.077                  7.192
 Frequency:       439.33                 577.58                 659.95
 Force Cnst:      0.3392                 0.4915                 0.3391
 Red. Mass:       2.9831                 2.5006                 1.3215
 IR Intens:        7.473                 13.344                 27.955
 Frequency:       719.68                 726.87                 750.60
 Force Cnst:      1.1746                 0.5428                 0.6474
 Red. Mass:       3.8492                 1.7438                 1.9504
 IR Intens:       40.237                 71.141                 11.617
 Frequency:       771.99                 825.49                 851.32
 Force Cnst:      0.5381                 0.4972                 1.5346
 Red. Mass:       1.5324                 1.2384                 3.5939
 IR Intens:       21.520                 77.904                  2.221
 Frequency:       876.72                 890.98                 907.10
 Force Cnst:      0.7255                 0.6250                 0.9398
 Red. Mass:       1.6019                 1.3364                 1.9385
 IR Intens:       10.001                  3.404                 21.092
 Frequency:       965.99                1064.95                1083.63
 Force Cnst:      0.9465                 1.0831                 0.8921
 Red. Mass:       1.7215                 1.6210                 1.2895
 IR Intens:        3.976                  8.708                  0.547
 Frequency:      1101.14                1190.79                1208.52
 Force Cnst:      1.1736                 2.4795                 1.4805
 Red. Mass:       1.6428                 2.9679                 1.7205
 IR Intens:       16.669                 28.656                 25.147
 Frequency:      1256.33                1308.87                1377.98
 Force Cnst:      1.6915                 2.1906                 3.7822
 Red. Mass:       1.8189                 2.1703                 3.3807
 IR Intens:        1.794                  0.822                 14.816
 Frequency:      1439.80                1514.64                1618.72
 Force Cnst:      2.8327                 5.0592                 9.0217
 Red. Mass:       2.3192                 3.7429                 5.8438
 IR Intens:        7.678                  3.322                 22.407
 Frequency:      3173.02                3208.72                3210.85
 Force Cnst:      6.4151                 6.7497                 6.6438
 Red. Mass:       1.0815                 1.1127                 1.0938
 IR Intens:       11.742                 20.815                  1.989
 Frequency:      3237.33                3257.22                3268.01
 Force Cnst:      6.7283                 6.8430                 6.9355
 Red. Mass:       1.0896                 1.0947                 1.1022
 IR Intens:        4.748                  3.825                  1.891

 STANDARD THERMODYNAMIC QUANTITIES AT   298.15 K  AND     1.00 ATM

   This Molecule has  1 Imaginary Frequencies
   Zero point vibrational energy:       62.911 kcal/mol

   Atom    1 Element C  Has Mass   12.00000
   Atom    2 Element C  Has Mass   12.00000
   Atom    3 Element C  Has Mass   12.00000
   Atom    4 Element C  Has Mass   12.00000
   Atom    5 Element C  Has Mass   12.00000
   Atom    6 Element N  Has Mass   14.00307
   Atom    7 Element H  Has Mass    1.00783
   Atom    8 Element H  Has Mass    1.00783
   Atom    9 Element H  Has Mass    1.00783
   Atom   10 Element H  Has Mass    1.00783
   Atom   11 Element H  Has Mass    1.00783
   Atom   12 Element C  Has Mass   12.00000
   Atom   13 Element H  Has Mass    1.00783
   Molecular Mass:    92.050050 amu
   Principal axes and moments of inertia in amu*Bohr^2:
                             1           2           3
    Eigenvalues --      296.47578   620.52609   809.90122
          X               0.90286     0.12705     0.41072
          Y               0.02086     0.94127    -0.33702
          Z              -0.42942     0.31285     0.84719
   Rotational Symmetry Number is   1
   The Molecule is an Asymmetric Top
   Translational Enthalpy:        0.889 kcal/mol
   Rotational Enthalpy:           0.889 kcal/mol
   Vibrational Enthalpy:         64.430 kcal/mol
   gas constant (RT):             0.592 kcal/mol
   Translational Entropy:        39.471  cal/mol.K
   Rotational Entropy:           26.502  cal/mol.K
   Vibrational Entropy:           7.420  cal/mol.K

   Total Enthalpy:               66.800 kcal/mol
   Total Entropy:                73.393  cal/mol.K

 Total job time:  647.23s(wall), 546.04s(cpu)
        *  Thank you very much for using Q-Chem.  Have a nice day.  *
