 Q-Chem 5.0, Q-Chem, Inc., Pleasanton, CA (2017)
 Q-Chem 5.0.2 for Intel X86 EM64T Linux

User input:
--------------------------------------------------------------
$molecule
0 2
C        1.6790276777    0.4830999984   -0.3260927528
C        1.1480824923   -0.8118775612   -0.4378191510
C       -0.3405772721   -0.7026571801   -0.4748621500
C       -1.2156312520    0.6018872471    0.9537731764
C       -0.5216060231    0.8648089160   -0.3834391384
N        0.7980311247    1.4779680468   -0.2908272691
H        2.7418748682    0.7076444539   -0.2455474248
H        1.7219389641   -1.7321137312   -0.4438373823
H       -0.8234852605   -1.2474930973   -1.2968410911
H       -1.6253226247    1.2818949857    1.6946776604
H       -1.1307923854    1.3573470143   -1.1512337864
C       -1.0771352298   -0.7264035322    0.8767470070
H       -1.3544050797   -1.5541055605    1.5253023026
$end

$rem
method                b3lyp
basis                 6-31g(d)
unrestricted          true
symmetry              off
sym_ignore            true
incdft                false
incfock               0
scf_convergence       8
thresh                14
jobtype               opt
scf_guess             read
scf_algorithm         diis
max_scf_cycles        100
geom_opt_tol_gradient 600
geom_opt_tol_displacement 2400
geom_opt_tol_energy   200
geom_opt_max_cycles   100
$end

--------------------------------------------------------------

    2    -286.8754792730      2.00E-09 Convergence criterion met
 Total energy in the final basis set = -286.87547927
   11    -286.8754839822      5.40E-09 Convergence criterion met
 Total energy in the final basis set = -286.87548398

             Standard Nuclear Orientation (Angstroms)
    I     Atom           X                Y                Z
 ----------------------------------------------------------------
    1      C       1.6785267244     0.4827270960    -0.3244565868
    2      C       1.1469088271    -0.8117292157    -0.4360389439
    3      C      -0.3419042325    -0.7023742275    -0.4751795297
    4      C      -1.2150588943     0.6015089455     0.9528958433
    5      C      -0.5222992121     0.8645293285    -0.3844577845
    6      N       0.7982952597     1.4778543598    -0.2908411647
    7      H       2.7410812655     0.7071311280    -0.2416880036
    8      H       1.7211182754    -1.7317350450    -0.4464848972
    9      H      -0.8259237719    -1.2466713501    -1.2966529799
   10      H      -1.6245054443     1.2816979658     1.6936618188
   11      H      -1.1307193087     1.3567159871    -1.1531043121
   12      C      -1.0760119745    -0.7264385141     0.8760124572
   13      H      -1.3495075144    -1.5532164587     1.5263340835
 ----------------------------------------------------------------

   10    -286.8754846444      9.26E-09 Convergence criterion met
 Total energy in the final basis set = -286.87548464
 Final energy is   -286.875484644356
 **  OPTIMIZATION CONVERGED  **

                    Orbital Energies (a.u.)
 --------------------------------------------------------------

 Alpha MOs
 -- Occupied --
-14.328 -10.217 -10.216 -10.207 -10.203 -10.200 -10.195  -0.944
 -0.838  -0.752  -0.665  -0.618  -0.554  -0.523  -0.515  -0.481
 -0.428  -0.403  -0.386  -0.354  -0.341  -0.322  -0.270  -0.253
 -0.203

 Beta MOs
 -- Occupied --
-14.318 -10.219 -10.218 -10.203 -10.199 -10.198 -10.194  -0.932
 -0.831  -0.734  -0.665  -0.610  -0.549  -0.520  -0.512  -0.475
 -0.420  -0.396  -0.381  -0.343  -0.334  -0.301  -0.264  -0.246

          Ground-State Mulliken Net Atomic Charges

     Atom                 Charge (a.u.)    Spin (a.u.)
  --------------------------------------------------------
      1 C                     0.048252      -0.230730
      2 C                    -0.114870       0.693523
      3 C                    -0.193767      -0.053949
      4 C                    -0.075922       0.032396
      5 C                    -0.061636      -0.027748
      6 N                    -0.351443       0.516694
      7 H                     0.140583       0.007433
      8 H                     0.143367      -0.032161
      9 H                     0.148171       0.025233
     10 H                     0.137363       0.003609
     11 H                     0.151462       0.025308
     12 C                    -0.104899       0.033531
     13 H                     0.133337       0.006862
  --------------------------------------------------------
  Sum of atomic charges =     0.000000

                    Cartesian Multipole Moments
 -----------------------------------------------------------------
    Charge (ESU x 10^10)
                 0.0000
    Dipole Moment (Debye)
         X      -0.4594      Y      -2.1044      Z       0.0153
       Tot       2.1540
    Quadrupole Moments (Debye-Ang)
        XX     -37.9392     XY      -2.7860     YY     -42.6239
        XZ      -0.5648     YZ       0.5476     ZZ     -39.8463

 Total job time:  21.95s(wall), 81.53s(cpu)
        *  Thank you very much for using Q-Chem.  Have a nice day.  *
