 Q-Chem 5.0, Q-Chem, Inc., Pleasanton, CA (2017)
 Q-Chem 5.0.2 for Intel X86 EM64T Linux

User input:
--------------------------------------------------------------
$molecule
0 2
C        1.5302432459    0.3168656677   -0.2498989377
C        0.5997421009   -0.9048222158   -0.1153124090
C       -0.4126286376   -0.4434815996   -1.1697675340
C       -0.9867633594    0.4908055767    0.8423491256
C       -0.5652962661    0.9461798030   -0.5633453307
N        0.8870956888    1.3924858918   -0.4985593091
H        2.6111962129    0.2954898233   -0.1280808732
H        1.0527729940   -1.8927768894   -0.1861997360
H       -1.2492063221   -1.0577059784   -1.4967553313
H       -1.7017750516    1.0036623626    1.4743967631
H       -1.1918517816    1.6898851304   -1.0515032301
C       -0.2842204656   -0.6230851325    1.1170845698
H       -0.2893083586   -1.2135024400    2.0255922326
$end

$rem
method                b3lyp
basis                 6-31+g(d,p)
unrestricted          true
symmetry              off
sym_ignore            true
incdft                false
incfock               0
scf_convergence       8
thresh                14
jobtype               sp
scf_guess             core
scf_guess_mix         5
scf_algorithm         diis
max_scf_cycles        100
$end

--------------------------------------------------------------

             Standard Nuclear Orientation (Angstroms)
    I     Atom           X                Y                Z
 ----------------------------------------------------------------
    1      C       1.5302432459     0.3168656677    -0.2498989377
    2      C       0.5997421009    -0.9048222158    -0.1153124090
    3      C      -0.4126286376    -0.4434815996    -1.1697675340
    4      C      -0.9867633594     0.4908055767     0.8423491256
    5      C      -0.5652962661     0.9461798030    -0.5633453307
    6      N       0.8870956888     1.3924858918    -0.4985593091
    7      H       2.6111962129     0.2954898233    -0.1280808732
    8      H       1.0527729940    -1.8927768894    -0.1861997360
    9      H      -1.2492063221    -1.0577059784    -1.4967553313
   10      H      -1.7017750516     1.0036623626     1.4743967631
   11      H      -1.1918517816     1.6898851304    -1.0515032301
   12      C      -0.2842204656    -0.6230851325     1.1170845698
   13      H      -0.2893083586    -1.2135024400     2.0255922326
 ----------------------------------------------------------------

   21    -286.8735072912      6.17E-09 Convergence criterion met
 Total energy in the final basis set = -286.87350729

                    Orbital Energies (a.u.)
 --------------------------------------------------------------

 Alpha MOs
 -- Occupied --
-14.337 -10.234 -10.231 -10.221 -10.216 -10.213 -10.209  -0.965
 -0.833  -0.737  -0.715  -0.589  -0.583  -0.539  -0.520  -0.481
 -0.429  -0.420  -0.391  -0.383  -0.358  -0.305  -0.283  -0.271
 -0.206

 Beta MOs
 -- Occupied --
-14.336 -10.235 -10.231 -10.221 -10.211 -10.208 -10.203  -0.961
 -0.827  -0.735  -0.700  -0.587  -0.571  -0.536  -0.517  -0.472
 -0.425  -0.416  -0.389  -0.379  -0.352  -0.298  -0.273  -0.268

          Ground-State Mulliken Net Atomic Charges

     Atom                 Charge (a.u.)    Spin (a.u.)
  --------------------------------------------------------
      1 C                    -0.092048      -0.031251
      2 C                     0.008865      -0.061164
      3 C                    -0.271211       1.035699
      4 C                    -0.145682       0.046252
      5 C                     0.024196      -0.090239
      6 N                    -0.203139       0.025770
      7 H                     0.137416      -0.000110
      8 H                     0.124706       0.003433
      9 H                     0.138818      -0.026201
     10 H                     0.138804       0.000613
     11 H                     0.129386       0.003558
     12 C                    -0.128470       0.093430
     13 H                     0.138359       0.000210
  --------------------------------------------------------
  Sum of atomic charges =    -0.000000

                    Cartesian Multipole Moments
 -----------------------------------------------------------------
    Charge (ESU x 10^10)
                -0.0000
    Dipole Moment (Debye)
         X      -0.8082      Y      -2.1820      Z       1.1368
       Tot       2.5897
    Quadrupole Moments (Debye-Ang)
        XX     -38.7165     XY      -4.8125     YY     -44.2607
        XZ       1.1046     YZ       0.5110     ZZ     -42.4870

 Total job time:  36.34s(wall), 108.41s(cpu)
        *  Thank you very much for using Q-Chem.  Have a nice day.  *
