 Q-Chem 5.0, Q-Chem, Inc., Pleasanton, CA (2017)
 Q-Chem 5.0.2 for Intel X86 EM64T Linux

User input:
--------------------------------------------------------------
$molecule
0 2
C        1.5549393903    0.2368494728   -0.2652312029
C        0.5819959154   -0.9242843466   -0.0909642628
C       -0.7121587794   -0.3539373094   -0.7783766174
C       -1.1067708511    0.2234280744    0.6021820470
C       -0.4363743445    1.0885426123   -0.5616803363
N        0.9750236506    1.3636032091   -0.4788665534
H        2.6280514920    0.1684324271   -0.0992649870
H        0.9527640279   -1.9293160977   -0.2993686885
H       -1.3373280643   -0.8254781560   -1.5296687978
H       -2.0714229759    0.5442240930    0.9805638926
H       -1.0758456831    1.8613122653   -0.9736230084
C       -0.1296120135   -0.6503588609    1.2320088992
H        0.1767382350   -0.8030173832    2.2622896155
$end

$rem
method                b3lyp
basis                 6-31+g(d,p)
unrestricted          true
symmetry              off
sym_ignore            true
incdft                false
incfock               0
scf_convergence       8
thresh                14
jobtype               sp
scf_guess             core
scf_guess_mix         5
scf_algorithm         diis
max_scf_cycles        100
$end

--------------------------------------------------------------

             Standard Nuclear Orientation (Angstroms)
    I     Atom           X                Y                Z
 ----------------------------------------------------------------
    1      C       1.5549393903     0.2368494728    -0.2652312029
    2      C       0.5819959154    -0.9242843466    -0.0909642628
    3      C      -0.7121587794    -0.3539373094    -0.7783766174
    4      C      -1.1067708511     0.2234280744     0.6021820470
    5      C      -0.4363743445     1.0885426123    -0.5616803363
    6      N       0.9750236506     1.3636032091    -0.4788665534
    7      H       2.6280514920     0.1684324271    -0.0992649870
    8      H       0.9527640279    -1.9293160977    -0.2993686885
    9      H      -1.3373280643    -0.8254781560    -1.5296687978
   10      H      -2.0714229759     0.5442240930     0.9805638926
   11      H      -1.0758456831     1.8613122653    -0.9736230084
   12      C      -0.1296120135    -0.6503588609     1.2320088992
   13      H       0.1767382350    -0.8030173832     2.2622896155
 ----------------------------------------------------------------

   21    -286.8593507318      4.79E-09 Convergence criterion met
 Total energy in the final basis set = -286.85935073

                    Orbital Energies (a.u.)
 --------------------------------------------------------------

 Alpha MOs
 -- Occupied --
-14.334 -10.234 -10.230 -10.220 -10.219 -10.219 -10.216  -0.979
 -0.867  -0.759  -0.674  -0.615  -0.580  -0.544  -0.524  -0.475
 -0.448  -0.415  -0.410  -0.366  -0.346  -0.309  -0.285  -0.267
 -0.188

 Beta MOs
 -- Occupied --
-14.333 -10.232 -10.229 -10.221 -10.220 -10.217 -10.204  -0.975
 -0.861  -0.751  -0.662  -0.611  -0.576  -0.537  -0.518  -0.469
 -0.444  -0.412  -0.404  -0.358  -0.342  -0.302  -0.274  -0.262

          Ground-State Mulliken Net Atomic Charges

     Atom                 Charge (a.u.)    Spin (a.u.)
  --------------------------------------------------------
      1 C                    -0.052195       0.053828
      2 C                    -0.027591      -0.115466
      3 C                    -0.062116       0.087081
      4 C                    -0.053688      -0.155011
      5 C                    -0.290880       0.103894
      6 N                    -0.171137       0.035611
      7 H                     0.131186       0.001061
      8 H                     0.133685       0.023546
      9 H                     0.133366       0.000314
     10 H                     0.138574       0.005194
     11 H                     0.144216       0.003545
     12 C                    -0.154299       0.979541
     13 H                     0.130880      -0.023138
  --------------------------------------------------------
  Sum of atomic charges =     0.000000

                    Cartesian Multipole Moments
 -----------------------------------------------------------------
    Charge (ESU x 10^10)
                -0.0000
    Dipole Moment (Debye)
         X      -1.1145      Y      -2.0076      Z       0.1235
       Tot       2.2995
    Quadrupole Moments (Debye-Ang)
        XX     -38.7630     XY      -5.3726     YY     -45.2685
        XZ       1.8785     YZ       1.2114     ZZ     -41.0278

 Total job time:  30.63s(wall), 108.65s(cpu)
        *  Thank you very much for using Q-Chem.  Have a nice day.  *
