 Q-Chem 5.0, Q-Chem, Inc., Pleasanton, CA (2017)
 Q-Chem 5.0.2 for Intel X86 EM64T Linux

User input:
--------------------------------------------------------------
$molecule
0 2
C        1.5486951731    0.2442336635   -0.2494075832
C        0.5832877847   -0.9254885455   -0.0949144588
C       -0.7096484807   -0.3596107883   -0.7855341012
C       -1.1193955337    0.1992909432    0.5904615686
C       -0.4422521773    1.0835525612   -0.5517996318
N        0.9671171309    1.3696570034   -0.4538244963
H        2.6208252181    0.1780447767   -0.0708608150
H        0.9605783932   -1.9279423739   -0.3083543462
H       -1.3195292186   -0.8226233496   -1.5554190234
H       -2.0921367155    0.5063234239    0.9619766907
H       -1.0832887086    1.8560368313   -0.9641885398
C       -0.1340248975   -0.6634536071    1.2281084250
H        0.2197720324   -0.7380205390    2.2537563110
****
C        1.6732083198    0.3588634606   -0.4779431527
C        1.0553283678   -0.9014998133   -0.4884873920
C       -0.4216372418   -0.6971985856   -0.4136870369
C       -1.0939311685    0.7169645018    1.0184265320
C       -0.4973235177    0.8810806303   -0.3797794139
N        0.8621236733    1.4099817808   -0.4182798464
H        2.7508422652    0.5162541656   -0.4914102351
H        1.5681936566   -1.8568933619   -0.5056117356
H       -1.0039451140   -1.2408350884   -1.1691892878
H       -1.3993374503    1.4511203217    1.7579520969
H       -1.1343031880    1.3811112412   -1.1195677630
C       -1.0442430042   -0.6192119191    0.9905554207
H       -1.3149755984   -1.3997373337    1.6970218136
$end

$rem
method                b3lyp
basis                 6-31g(d)
unrestricted          true
symmetry              off
sym_ignore            true
incdft                false
incfock               0
scf_convergence       8
thresh                14
jobtype               fsm
scf_guess             core
scf_guess_mix         5
scf_algorithm         diis
max_scf_cycles        100
fsm_nnode             21
fsm_ngrad             6
fsm_mode              2
fsm_opt_mode          2
$end

--------------------------------------------------------------

   21    -286.8383138856      5.71E-09 Convergence criterion met
 Total energy in the final basis set = -286.83831389
   22    -286.8754984188      8.46E-09 Convergence criterion met
 Total energy in the final basis set = -286.87549842
   20    -286.8358505349      7.92E-09 Convergence criterion met
 Total energy in the final basis set = -286.83585053
   21    -286.8368423159      5.78E-09 Convergence criterion met
 Total energy in the final basis set = -286.83684232
   21    -286.8735680673      9.86E-09 Convergence criterion met
 Total energy in the final basis set = -286.87356807
   22    -286.8732123829      5.33E-09 Convergence criterion met
 Total energy in the final basis set = -286.87321238
   22    -286.8693379725      7.41E-09 Convergence criterion met
 Total energy in the final basis set = -286.86933797
   21    -286.8730339227      6.90E-09 Convergence criterion met
 Total energy in the final basis set = -286.80048643
   22    -286.8014818059      8.72E-09 Convergence criterion met
 Total energy in the final basis set = -286.80148181
   23    -286.8006218485      1.55E-09 Convergence criterion met
 Total energy in the final basis set = -286.80062185
   22    -286.8013555981      8.76E-09 Convergence criterion met
 Total energy in the final basis set = -286.80135560
   23    -286.8007921317      1.63E-09 Convergence criterion met
 Total energy in the final basis set = -286.80079213
   22    -286.8012006137      9.06E-09 Convergence criterion met
 Total energy in the final basis set = -286.80120061
   23    -286.8009219898      1.67E-09 Convergence criterion met
 Total energy in the final basis set = -286.80092199
   22    -286.8010872394      9.38E-09 Convergence criterion met
 Total energy in the final basis set = -286.80108724

                    Orbital Energies (a.u.)
 --------------------------------------------------------------

 Alpha MOs
 -- Occupied --
-14.316 -10.225 -10.222 -10.219 -10.218 -10.216 -10.196  -0.961
 -0.845  -0.736  -0.680  -0.592  -0.579  -0.535  -0.513  -0.456
 -0.430  -0.406  -0.400  -0.378  -0.321  -0.304  -0.274  -0.263
 -0.118

 Beta MOs
 -- Occupied --
-14.316 -10.225 -10.224 -10.219 -10.217 -10.211 -10.185  -0.957
 -0.837  -0.733  -0.668  -0.586  -0.572  -0.530  -0.508  -0.448
 -0.427  -0.401  -0.397  -0.374  -0.316  -0.286  -0.269  -0.255

          Ground-State Mulliken Net Atomic Charges

     Atom                 Charge (a.u.)    Spin (a.u.)
  --------------------------------------------------------
      1 C                     0.090810       0.028052
      2 C                    -0.246119      -0.058214
      3 C                    -0.127158       0.415859
      4 C                    -0.148054      -0.152558
      5 C                    -0.009644       0.001504
      6 N                    -0.339780       0.022987
      7 H                     0.144951       0.000734
      8 H                     0.139106       0.006449
      9 H                     0.158657      -0.015120
     10 H                     0.158466       0.006345
     11 H                     0.150515       0.003451
     12 C                    -0.115308       0.779016
     13 H                     0.143558      -0.038505
  --------------------------------------------------------
  Sum of atomic charges =     0.000000

                    Cartesian Multipole Moments
 -----------------------------------------------------------------
    Charge (ESU x 10^10)
                 0.0000
    Dipole Moment (Debye)
         X      -1.2611      Y      -1.9016      Z      -0.0673
       Tot       2.2827
    Quadrupole Moments (Debye-Ang)
        XX     -37.5613     XY      -4.4188     YY     -42.9121
        XZ       0.2495     YZ       1.2345     ZZ     -40.6473

             Standard Nuclear Orientation (Angstroms)
    I     Atom           X                Y                Z
 ----------------------------------------------------------------
    1      C       1.5583654825     0.3155499394    -0.3012951530
    2      C       0.6527588157    -0.9035715320    -0.1027010661
    3      C      -0.6118307096    -0.4233815181    -0.8157790109
    4      C      -1.0328212448     0.3948041179     0.7194191375
    5      C      -0.4810323184     1.0308415698    -0.5593056626
    6      N       0.9264053449     1.4090220359    -0.5168975280
    7      H       2.6412788445     0.3046859935    -0.1957210126
    8      H       1.1144699778    -1.8751780942    -0.3099955817
    9      H      -1.2768257090    -1.0083934510    -1.4379233267
   10      H      -1.8285754563     0.9157714794     1.2615587364
   11      H      -1.1380020775     1.7083064645    -1.0994485217
   12      C      -0.1922190193    -0.6298491046     1.2281217383
   13      H      -0.3416708599    -1.2636470826     2.1093437724
 ----------------------------------------------------------------

 Total job time:  1622.93s(wall), 4476.51s(cpu)
        *  Thank you very much for using Q-Chem.  Have a nice day.  *
