 Q-Chem 5.0, Q-Chem, Inc., Pleasanton, CA (2017)
 Q-Chem 5.0.2 for Intel X86 EM64T Linux

User input:
--------------------------------------------------------------
$molecule
0 2
C        1.5506065162    0.2803994465   -0.2892573610
C        0.6047837130   -0.9061184098   -0.0892157004
C       -0.6032590357   -0.4070503466   -0.9169950063
C       -1.0198561065    0.3833713355    0.7221182156
C       -0.4893894467    1.0316219733   -0.5574950661
N        0.9353916561    1.3849595110   -0.5175701500
H        2.6272799519    0.2418187136   -0.1382494709
H        1.0058778511   -1.9093905295   -0.2289829027
H       -1.2983069422   -0.9393963231   -1.5512251666
H       -1.9386224598    0.7331748314    1.1847142032
H       -1.1391276644    1.7711340482   -1.0163192750
C       -0.1433175524   -0.6005918445    1.2072156373
H       -0.1017594102   -1.0889715881    2.1706385643
$end

$rem
method                b3lyp
basis                 6-31+g(d,p)
unrestricted          true
symmetry              off
sym_ignore            true
incdft                false
incfock               0
scf_convergence       8
thresh                14
jobtype               rpath
scf_guess             core
scf_guess_mix         5
scf_algorithm         diis
max_scf_cycles        100
rpath_direction       1
rpath_tol_displacement 1000
rpath_max_cycles      50
geom_opt_max_cycles   300
geom_opt_hessian      read
$end

--------------------------------------------------------------

   22    -286.8475417248      6.55E-09 Convergence criterion met
 Total energy in the final basis set = -286.84754172
   22    -286.8489542373      7.88E-09 Convergence criterion met
 Total energy in the final basis set = -286.84895424
   22    -286.8489033476      5.68E-09 Convergence criterion met
 Total energy in the final basis set = -286.84890335
   22    -286.8489575653      7.80E-09 Convergence criterion met
 Total energy in the final basis set = -286.84895757
   21    -286.8518804539      8.22E-09 Convergence criterion met
 Total energy in the final basis set = -286.85188045
   21    -286.8516141420      7.91E-09 Convergence criterion met
 Total energy in the final basis set = -286.85161414
   21    -286.8518888383      8.18E-09 Convergence criterion met
 Total energy in the final basis set = -286.85188884
   21    -286.8544319567      3.58E-09 Convergence criterion met
 Total energy in the final basis set = -286.86611419
   21    -286.8735099010      5.83E-09 Convergence criterion met
 Total energy in the final basis set = -286.87350990
   21    -286.8735083875      5.64E-09 Convergence criterion met
 Total energy in the final basis set = -286.87350839
   21    -286.8735113203      6.20E-09 Convergence criterion met
 Total energy in the final basis set = -286.87351132
   21    -286.8702847813      5.54E-09 Convergence criterion met
 Total energy in the final basis set = -286.87028478
   21    -286.8735150232      5.88E-09 Convergence criterion met
 Total energy in the final basis set = -286.87351502
   21    -286.8735119587      5.76E-09 Convergence criterion met
 Total energy in the final basis set = -286.87351196
   21    -286.8735152733      5.86E-09 Convergence criterion met
 Total energy in the final basis set = -286.87351527

                    Orbital Energies (a.u.)
 --------------------------------------------------------------

 Alpha MOs
 -- Occupied --
-14.337 -10.235 -10.231 -10.221 -10.216 -10.213 -10.209  -0.965
 -0.832  -0.737  -0.715  -0.589  -0.583  -0.539  -0.520  -0.481
 -0.429  -0.420  -0.391  -0.383  -0.358  -0.305  -0.283  -0.271
 -0.206

 Beta MOs
 -- Occupied --
-14.336 -10.235 -10.231 -10.221 -10.211 -10.208 -10.202  -0.961
 -0.827  -0.735  -0.700  -0.587  -0.571  -0.536  -0.517  -0.472
 -0.425  -0.416  -0.389  -0.379  -0.352  -0.298  -0.273  -0.268

          Ground-State Mulliken Net Atomic Charges

     Atom                 Charge (a.u.)    Spin (a.u.)
  --------------------------------------------------------
      1 C                    -0.091974      -0.031284
      2 C                     0.008844      -0.061277
      3 C                    -0.271172       1.035597
      4 C                    -0.146167       0.046068
      5 C                     0.024199      -0.090206
      6 N                    -0.203047       0.025732
      7 H                     0.137378      -0.000106
      8 H                     0.124735       0.003447
      9 H                     0.138841      -0.026337
     10 H                     0.138830       0.000659
     11 H                     0.129366       0.003569
     12 C                    -0.128259       0.093965
     13 H                     0.138426       0.000173
  --------------------------------------------------------
  Sum of atomic charges =    -0.000000

                    Cartesian Multipole Moments
 -----------------------------------------------------------------
    Charge (ESU x 10^10)
                 0.0000
    Dipole Moment (Debye)
         X      -0.7980      Y      -2.1868      Z       1.1345
       Tot       2.5896
    Quadrupole Moments (Debye-Ang)
        XX     -38.6801     XY      -4.7868     YY     -44.2889
        XZ       1.1013     YZ       0.5146     ZZ     -42.4895

             Standard Nuclear Orientation (Angstroms)
    I     Atom           X                Y                Z
 ----------------------------------------------------------------
    1      C       1.5506065162     0.2803994465    -0.2892573610
    2      C       0.6047837130    -0.9061184098    -0.0892157004
    3      C      -0.6032590357    -0.4070503466    -0.9169950063
    4      C      -1.0198561065     0.3833713355     0.7221182156
    5      C      -0.4893894467     1.0316219733    -0.5574950661
    6      N       0.9353916561     1.3849595110    -0.5175701500
    7      H       2.6272799519     0.2418187136    -0.1382494709
    8      H       1.0058778511    -1.9093905295    -0.2289829027
    9      H      -1.2983069422    -0.9393963231    -1.5512251666
   10      H      -1.9386224598     0.7331748314     1.1847142032
   11      H      -1.1391276644     1.7711340482    -1.0163192750
   12      C      -0.1433175524    -0.6005918445     1.2072156373
   13      H      -0.1017594102    -1.0889715881     2.1706385643
 ----------------------------------------------------------------

 Total job time:  9294.87s(wall), 29911.58s(cpu)
        *  Thank you very much for using Q-Chem.  Have a nice day.  *
