 Q-Chem 5.0, Q-Chem, Inc., Pleasanton, CA (2017)
 Q-Chem 5.0.2 for Intel X86 EM64T Linux

User input:
--------------------------------------------------------------
$molecule
0 2
C        1.6734165274    0.3585994487   -0.4786081570
C        1.0560964190   -0.9023133348   -0.4899042838
C       -0.4210820371   -0.6979284812   -0.4122503498
C       -1.0940610298    0.7178317038    1.0191400177
C       -0.4966459967    0.8809769575   -0.3786482585
N        0.8626220794    1.4102193109   -0.4174465208
H        2.7509730711    0.5169359842   -0.4918985162
H        1.5698937605   -1.8573436279   -0.5079707163
H       -1.0049221580   -1.2412848790   -1.1669316396
H       -1.4016860956    1.4518428844    1.7577843526
H       -1.1335018324    1.3801692155   -1.1194248033
C       -1.0443735287   -0.6184600040    0.9905342412
H       -1.3167291791   -1.3992451781    1.6956246336
$end

$rem
method                b3lyp
basis                 6-31g(d)
unrestricted          true
symmetry              off
sym_ignore            true
incdft                false
incfock               0
scf_convergence       8
thresh                14
jobtype               opt
scf_guess             core
scf_guess_mix         5
scf_algorithm         diis
max_scf_cycles        100
geom_opt_max_cycles   300
$end

--------------------------------------------------------------

   22    -286.8754954559      8.28E-09 Convergence criterion met
 Total energy in the final basis set = -286.87549546
   16    -286.8754981364      5.55E-09 Convergence criterion met
 Total energy in the final basis set = -286.87549814

             Standard Nuclear Orientation (Angstroms)
    I     Atom           X                Y                Z
 ----------------------------------------------------------------
    1      C       1.6732083198     0.3588634606    -0.4779431527
    2      C       1.0553283678    -0.9014998133    -0.4884873920
    3      C      -0.4216372418    -0.6971985856    -0.4136870369
    4      C      -1.0939311685     0.7169645018     1.0184265320
    5      C      -0.4973235177     0.8810806303    -0.3797794139
    6      N       0.8621236733     1.4099817808    -0.4182798464
    7      H       2.7508422652     0.5162541656    -0.4914102351
    8      H       1.5681936566    -1.8568933619    -0.5056117356
    9      H      -1.0039451140    -1.2408350884    -1.1691892878
   10      H      -1.3993374503     1.4511203217     1.7579520969
   11      H      -1.1343031880     1.3811112412    -1.1195677630
   12      C      -1.0442430042    -0.6192119191     0.9905554207
   13      H      -1.3149755984    -1.3997373337     1.6970218136
 ----------------------------------------------------------------

   16    -286.8754984787      5.67E-09 Convergence criterion met
 Total energy in the final basis set = -286.87549848
 Final energy is   -286.875498478720
 **  OPTIMIZATION CONVERGED  **

                    Orbital Energies (a.u.)
 --------------------------------------------------------------

 Alpha MOs
 -- Occupied --
-14.328 -10.217 -10.216 -10.207 -10.202 -10.200 -10.195  -0.944
 -0.837  -0.752  -0.665  -0.618  -0.554  -0.523  -0.515  -0.481
 -0.428  -0.403  -0.386  -0.355  -0.341  -0.322  -0.270  -0.253
 -0.203

 Beta MOs
 -- Occupied --
-14.318 -10.219 -10.218 -10.203 -10.199 -10.198 -10.194  -0.932
 -0.831  -0.734  -0.665  -0.610  -0.549  -0.520  -0.512  -0.475
 -0.420  -0.396  -0.381  -0.343  -0.334  -0.301  -0.264  -0.246

          Ground-State Mulliken Net Atomic Charges

     Atom                 Charge (a.u.)    Spin (a.u.)
  --------------------------------------------------------
      1 C                     0.048261      -0.230737
      2 C                    -0.114524       0.693367
      3 C                    -0.193591      -0.053989
      4 C                    -0.075745       0.031976
      5 C                    -0.062076      -0.027668
      6 N                    -0.351500       0.516876
      7 H                     0.140539       0.007433
      8 H                     0.143339      -0.032146
      9 H                     0.148130       0.025255
     10 H                     0.137350       0.003610
     11 H                     0.151571       0.025327
     12 C                    -0.105118       0.033824
     13 H                     0.133364       0.006872
  --------------------------------------------------------
  Sum of atomic charges =     0.000000

                    Cartesian Multipole Moments
 -----------------------------------------------------------------
    Charge (ESU x 10^10)
                 0.0000
    Dipole Moment (Debye)
         X      -0.5869      Y      -2.0672      Z       0.1424
       Tot       2.1536
    Quadrupole Moments (Debye-Ang)
        XX     -38.4012     XY      -3.0229     YY     -42.1901
        XZ      -0.5390     YZ       0.9252     ZZ     -39.8161

 Total job time:  61.74s(wall), 162.74s(cpu)
        *  Thank you very much for using Q-Chem.  Have a nice day.  *
