 Q-Chem 5.0, Q-Chem, Inc., Pleasanton, CA (2017)
 Q-Chem 5.0.2 for Intel X86 EM64T Linux

User input:
--------------------------------------------------------------
$molecule
0 2
C        1.5583654825    0.3155499394   -0.3012951530
C        0.6527588157   -0.9035715320   -0.1027010661
C       -0.6118307096   -0.4233815181   -0.8157790109
C       -1.0328212448    0.3948041179    0.7194191375
C       -0.4810323184    1.0308415698   -0.5593056626
N        0.9264053449    1.4090220359   -0.5168975280
H        2.6412788445    0.3046859935   -0.1957210126
H        1.1144699778   -1.8751780942   -0.3099955817
H       -1.2768257090   -1.0083934510   -1.4379233267
H       -1.8285754563    0.9157714794    1.2615587364
H       -1.1380020775    1.7083064645   -1.0994485217
C       -0.1922190193   -0.6298491046    1.2281217383
H       -0.3416708599   -1.2636470826    2.1093437724
$end

$rem
method                b3lyp
basis                 6-31g(d)
unrestricted          true
symmetry              off
sym_ignore            true
incdft                false
incfock               0
scf_convergence       8
thresh                14
jobtype               freq
scf_guess             read
scf_algorithm         diis
max_scf_cycles        100
$end

--------------------------------------------------------------

             Standard Nuclear Orientation (Angstroms)
    I     Atom           X                Y                Z
 ----------------------------------------------------------------
    1      C       1.5583654825     0.3155499394    -0.3012951530
    2      C       0.6527588157    -0.9035715320    -0.1027010661
    3      C      -0.6118307096    -0.4233815181    -0.8157790109
    4      C      -1.0328212448     0.3948041179     0.7194191375
    5      C      -0.4810323184     1.0308415698    -0.5593056626
    6      N       0.9264053449     1.4090220359    -0.5168975280
    7      H       2.6412788445     0.3046859935    -0.1957210126
    8      H       1.1144699778    -1.8751780942    -0.3099955817
    9      H      -1.2768257090    -1.0083934510    -1.4379233267
   10      H      -1.8285754563     0.9157714794     1.2615587364
   11      H      -1.1380020775     1.7083064645    -1.0994485217
   12      C      -0.1922190193    -0.6298491046     1.2281217383
   13      H      -0.3416708599    -1.2636470826     2.1093437724
 ----------------------------------------------------------------

    2    -286.8127806448      2.75E-09 Convergence criterion met
 Total energy in the final basis set = -286.81278064

                    Orbital Energies (a.u.)
 --------------------------------------------------------------

 Alpha MOs
 -- Occupied --
-14.315 -10.224 -10.220 -10.218 -10.217 -10.213 -10.196  -0.961
 -0.842  -0.737  -0.681  -0.591  -0.578  -0.537  -0.513  -0.457
 -0.431  -0.408  -0.400  -0.374  -0.327  -0.300  -0.272  -0.264
 -0.130

 Beta MOs
 -- Occupied --
-14.315 -10.224 -10.222 -10.218 -10.214 -10.210 -10.185  -0.957
 -0.834  -0.734  -0.669  -0.586  -0.571  -0.531  -0.509  -0.449
 -0.429  -0.402  -0.398  -0.369  -0.322  -0.284  -0.267  -0.255

          Ground-State Mulliken Net Atomic Charges

     Atom                 Charge (a.u.)    Spin (a.u.)
  --------------------------------------------------------
      1 C                     0.091754       0.025250
      2 C                    -0.254042      -0.061811
      3 C                    -0.124920       0.434810
      4 C                    -0.151038      -0.167358
      5 C                    -0.012937       0.004792
      6 N                    -0.339925       0.030926
      7 H                     0.143860       0.000641
      8 H                     0.138501       0.007273
      9 H                     0.158500      -0.016365
     10 H                     0.154334       0.006813
     11 H                     0.149857       0.003441
     12 C                    -0.098657       0.770625
     13 H                     0.144714      -0.039037
  --------------------------------------------------------
  Sum of atomic charges =    -0.000000

                    Cartesian Multipole Moments
 -----------------------------------------------------------------
    Charge (ESU x 10^10)
                 0.0000
    Dipole Moment (Debye)
         X      -1.2641      Y      -1.9917      Z       0.0054
       Tot       2.3590
    Quadrupole Moments (Debye-Ang)
        XX     -37.7152     XY      -4.4652     YY     -42.9721
        XZ       0.4994     YZ       1.0557     ZZ     -40.4003

 Frequency:      -658.36                 129.96                 420.51
 Force Cnst:      1.2886                 0.0125                 0.3876
 Red. Mass:       5.0459                 1.2553                 3.7203
 IR Intens:       40.300                 21.312                  1.375
 Frequency:       446.44                 524.38                 639.99
 Force Cnst:      0.2815                 0.2514                 0.8232
 Red. Mass:       2.3975                 1.5518                 3.4110
 IR Intens:        5.826                 11.511                 12.169
 Frequency:       745.02                 761.04                 790.59
 Force Cnst:      1.7993                 1.5485                 1.8671
 Red. Mass:       5.5019                 4.5377                 5.0700
 IR Intens:        0.936                  2.525                  5.946
 Frequency:       852.93                 862.00                 888.00
 Force Cnst:      1.0419                 1.8249                 0.7744
 Red. Mass:       2.4308                 4.1684                 1.6668
 IR Intens:       22.139                  2.546                  8.927
 Frequency:       920.94                 927.06                 957.08
 Force Cnst:      0.7279                 0.8937                 0.8533
 Red. Mass:       1.4568                 1.7649                 1.5811
 IR Intens:        9.795                 14.597                  2.990
 Frequency:       983.49                1047.76                1081.05
 Force Cnst:      1.3994                 1.2984                 1.0917
 Red. Mass:       2.4556                 2.0075                 1.5855
 IR Intens:        0.670                  5.865                  1.601
 Frequency:      1131.58                1152.76                1230.45
 Force Cnst:      1.2190                 1.3848                 1.3264
 Red. Mass:       1.6157                 1.7687                 1.4870
 IR Intens:       12.560                  4.814                  1.579
 Frequency:      1265.26                1284.89                1330.89
 Force Cnst:      1.5915                 1.2345                 1.8762
 Red. Mass:       1.6873                 1.2691                 1.7978
 IR Intens:       14.069                  1.048                 13.348
 Frequency:      1333.85                1384.97                1653.93
 Force Cnst:      1.6470                 2.4178                12.2208
 Red. Mass:       1.5712                 2.1394                 7.5825
 IR Intens:        5.171                  1.476                 35.442
 Frequency:      3108.85                3121.92                3139.44
 Force Cnst:      6.2102                 6.2437                 6.3840
 Red. Mass:       1.0906                 1.0873                 1.0993
 IR Intens:       16.198                 10.201                  1.622
 Frequency:      3186.71                3193.03                3251.62
 Force Cnst:      6.5238                 6.5706                 6.8226
 Red. Mass:       1.0903                 1.0938                 1.0952
 IR Intens:       25.700                 19.484                  1.546

 STANDARD THERMODYNAMIC QUANTITIES AT   298.15 K  AND     1.00 ATM

   This Molecule has  1 Imaginary Frequencies
   Zero point vibrational energy:       62.541 kcal/mol

   Atom    1 Element C  Has Mass   12.00000
   Atom    2 Element C  Has Mass   12.00000
   Atom    3 Element C  Has Mass   12.00000
   Atom    4 Element C  Has Mass   12.00000
   Atom    5 Element C  Has Mass   12.00000
   Atom    6 Element N  Has Mass   14.00307
   Atom    7 Element H  Has Mass    1.00783
   Atom    8 Element H  Has Mass    1.00783
   Atom    9 Element H  Has Mass    1.00783
   Atom   10 Element H  Has Mass    1.00783
   Atom   11 Element H  Has Mass    1.00783
   Atom   12 Element C  Has Mass   12.00000
   Atom   13 Element H  Has Mass    1.00783
   Molecular Mass:    92.050050 amu
   Principal axes and moments of inertia in amu*Bohr^2:
                             1           2           3
    Eigenvalues --      369.51031   463.38738   582.17571
          X               0.72411    -0.64630     0.24077
          Y               0.49752     0.73126     0.46663
          Z              -0.47765    -0.21810     0.85105
   Rotational Symmetry Number is   1
   The Molecule is an Asymmetric Top
   Translational Enthalpy:        0.889 kcal/mol
   Rotational Enthalpy:           0.889 kcal/mol
   Vibrational Enthalpy:         64.037 kcal/mol
   gas constant (RT):             0.592 kcal/mol
   Translational Entropy:        39.471  cal/mol.K
   Rotational Entropy:           26.102  cal/mol.K
   Vibrational Entropy:           7.704  cal/mol.K

   Total Enthalpy:               66.407 kcal/mol
   Total Entropy:                73.278  cal/mol.K

 Total job time:  267.89s(wall), 259.21s(cpu)
        *  Thank you very much for using Q-Chem.  Have a nice day.  *
