 Q-Chem 5.0, Q-Chem, Inc., Pleasanton, CA (2017)
 Q-Chem 5.0.2 for Intel X86 EM64T Linux

User input:
--------------------------------------------------------------
$molecule
0 2
C        1.5506065162    0.2803994465   -0.2892573610
C        0.6047837130   -0.9061184098   -0.0892157004
C       -0.6032590357   -0.4070503466   -0.9169950063
C       -1.0198561065    0.3833713355    0.7221182156
C       -0.4893894467    1.0316219733   -0.5574950661
N        0.9353916561    1.3849595110   -0.5175701500
H        2.6272799519    0.2418187136   -0.1382494709
H        1.0058778511   -1.9093905295   -0.2289829027
H       -1.2983069422   -0.9393963231   -1.5512251666
H       -1.9386224598    0.7331748314    1.1847142032
H       -1.1391276644    1.7711340482   -1.0163192750
C       -0.1433175524   -0.6005918445    1.2072156373
H       -0.1017594102   -1.0889715881    2.1706385643
$end

$rem
method                b3lyp
basis                 6-31+g(d,p)
unrestricted          true
symmetry              off
sym_ignore            true
incdft                false
incfock               0
scf_convergence       8
thresh                14
jobtype               freq
scf_guess             read
scf_algorithm         diis
max_scf_cycles        100
$end

--------------------------------------------------------------

             Standard Nuclear Orientation (Angstroms)
    I     Atom           X                Y                Z
 ----------------------------------------------------------------
    1      C       1.5506065162     0.2803994465    -0.2892573610
    2      C       0.6047837130    -0.9061184098    -0.0892157004
    3      C      -0.6032590357    -0.4070503466    -0.9169950063
    4      C      -1.0198561065     0.3833713355     0.7221182156
    5      C      -0.4893894467     1.0316219733    -0.5574950661
    6      N       0.9353916561     1.3849595110    -0.5175701500
    7      H       2.6272799519     0.2418187136    -0.1382494709
    8      H       1.0058778511    -1.9093905295    -0.2289829027
    9      H      -1.2983069422    -0.9393963231    -1.5512251666
   10      H      -1.9386224598     0.7331748314     1.1847142032
   11      H      -1.1391276644     1.7711340482    -1.0163192750
   12      C      -0.1433175524    -0.6005918445     1.2072156373
   13      H      -0.1017594102    -1.0889715881     2.1706385643
 ----------------------------------------------------------------

    2    -286.8475417248      7.51E-10 Convergence criterion met
 Total energy in the final basis set = -286.84754172

                    Orbital Energies (a.u.)
 --------------------------------------------------------------

 Alpha MOs
 -- Occupied --
-14.330 -10.235 -10.230 -10.229 -10.226 -10.221 -10.206  -0.972
 -0.849  -0.751  -0.696  -0.602  -0.585  -0.548  -0.522  -0.472
 -0.444  -0.424  -0.409  -0.378  -0.356  -0.296  -0.284  -0.277
 -0.157

 Beta MOs
 -- Occupied --
-14.329 -10.235 -10.231 -10.230 -10.222 -10.217 -10.197  -0.968
 -0.842  -0.747  -0.684  -0.598  -0.577  -0.541  -0.519  -0.463
 -0.441  -0.419  -0.406  -0.373  -0.351  -0.287  -0.275  -0.265

          Ground-State Mulliken Net Atomic Charges

     Atom                 Charge (a.u.)    Spin (a.u.)
  --------------------------------------------------------
      1 C                    -0.070023      -0.002366
      2 C                     0.000529      -0.101943
      3 C                    -0.199028       0.595356
      4 C                    -0.104158      -0.233049
      5 C                    -0.133411      -0.021303
      6 N                    -0.179334       0.062244
      7 H                     0.132745       0.001542
      8 H                     0.129116       0.010519
      9 H                     0.145886      -0.024360
     10 H                     0.139256       0.010262
     11 H                     0.138958       0.004298
     12 C                    -0.139657       0.727819
     13 H                     0.139120      -0.029020
  --------------------------------------------------------
  Sum of atomic charges =    -0.000000

                    Cartesian Multipole Moments
 -----------------------------------------------------------------
    Charge (ESU x 10^10)
                -0.0000
    Dipole Moment (Debye)
         X      -1.3549      Y      -2.2031      Z       0.3233
       Tot       2.6065
    Quadrupole Moments (Debye-Ang)
        XX     -38.6943     XY      -5.3181     YY     -44.7790
        XZ       1.2221     YZ       0.9144     ZZ     -41.8863

 Frequency:      -657.38                 332.55                 391.91
 Force Cnst:      1.3958                 0.0763                 0.1021
 Red. Mass:       5.4819                 1.1713                 1.1279
 IR Intens:       34.639                 21.596                 29.512
 Frequency:       438.70                 482.88                 605.64
 Force Cnst:      0.4203                 0.5285                 1.0016
 Red. Mass:       3.7063                 3.8469                 4.6349
 IR Intens:        6.709                  6.193                 14.818
 Frequency:       741.27                 783.68                 825.21
 Force Cnst:      1.9296                 2.5569                 0.8669
 Red. Mass:       5.9603                 7.0660                 2.1607
 IR Intens:        3.360                  5.078                 16.550
 Frequency:       851.42                 882.84                 893.14
 Force Cnst:      1.8191                 0.9688                 0.7014
 Red. Mass:       4.2590                 2.1096                 1.4923
 IR Intens:       10.109                  8.939                  2.953
 Frequency:       913.57                 924.88                 956.91
 Force Cnst:      0.9691                 0.8295                 1.1201
 Red. Mass:       1.9708                 1.6459                 2.0761
 IR Intens:        1.285                 19.944                  2.220
 Frequency:       973.00                1025.55                1084.59
 Force Cnst:      1.1371                 1.2815                 1.2043
 Red. Mass:       2.0386                 2.0681                 1.7376
 IR Intens:        2.461                  3.825                  5.276
 Frequency:      1137.69                1174.67                1215.14
 Force Cnst:      1.2907                 1.4592                 1.3381
 Red. Mass:       1.6925                 1.7949                 1.5381
 IR Intens:       15.248                  1.869                  5.873
 Frequency:      1242.40                1272.99                1318.77
 Force Cnst:      1.4489                 1.1999                 1.5405
 Red. Mass:       1.5932                 1.2568                 1.5034
 IR Intens:        6.940                  0.896                  7.058
 Frequency:      1322.82                1405.87                1626.11
 Force Cnst:      1.8170                 3.1512                11.6913
 Red. Mass:       1.7624                 2.7061                 7.5043
 IR Intens:       15.406                  1.637                 44.262
 Frequency:      3146.76                3184.06                3185.34
 Force Cnst:      6.3598                 6.5187                 6.5347
 Red. Mass:       1.0901                 1.0913                 1.0931
 IR Intens:       17.769                 21.149                  6.149
 Frequency:      3195.05                3258.68                3263.17
 Force Cnst:      6.5728                 6.8488                 6.8810
 Red. Mass:       1.0928                 1.0947                 1.0968
 IR Intens:       18.863                  0.986                  0.620

 STANDARD THERMODYNAMIC QUANTITIES AT   298.15 K  AND     1.00 ATM

   This Molecule has  1 Imaginary Frequencies
   Zero point vibrational energy:       62.983 kcal/mol

   Atom    1 Element C  Has Mass   12.00000
   Atom    2 Element C  Has Mass   12.00000
   Atom    3 Element C  Has Mass   12.00000
   Atom    4 Element C  Has Mass   12.00000
   Atom    5 Element C  Has Mass   12.00000
   Atom    6 Element N  Has Mass   14.00307
   Atom    7 Element H  Has Mass    1.00783
   Atom    8 Element H  Has Mass    1.00783
   Atom    9 Element H  Has Mass    1.00783
   Atom   10 Element H  Has Mass    1.00783
   Atom   11 Element H  Has Mass    1.00783
   Atom   12 Element C  Has Mass   12.00000
   Atom   13 Element H  Has Mass    1.00783
   Molecular Mass:    92.050050 amu
   Principal axes and moments of inertia in amu*Bohr^2:
                             1           2           3
    Eigenvalues --      376.96077   456.60647   566.65969
          X               0.73394    -0.64782     0.20410
          Y               0.48476     0.71009     0.51066
          Z              -0.47574    -0.27585     0.83521
   Rotational Symmetry Number is   1
   The Molecule is an Asymmetric Top
   Translational Enthalpy:        0.889 kcal/mol
   Rotational Enthalpy:           0.889 kcal/mol
   Vibrational Enthalpy:         64.334 kcal/mol
   gas constant (RT):             0.592 kcal/mol
   Translational Entropy:        39.471  cal/mol.K
   Rotational Entropy:           26.081  cal/mol.K
   Vibrational Entropy:           6.248  cal/mol.K

   Total Enthalpy:               66.704 kcal/mol
   Total Entropy:                71.800  cal/mol.K

 Total job time:  574.27s(wall), 559.14s(cpu)
        *  Thank you very much for using Q-Chem.  Have a nice day.  *
