 Q-Chem 5.0, Q-Chem, Inc., Pleasanton, CA (2017)
 Q-Chem 5.0.2 for Intel X86 EM64T Linux

User input:
--------------------------------------------------------------
$molecule
0 2
C        1.5472061022    0.2800652443   -0.2862040863
C        0.6018095335   -0.9085822596   -0.0935878209
C       -0.5979932680   -0.4056680691   -0.9271138246
C       -1.0219831915    0.3781443506    0.7188235532
C       -0.4879944911    1.0310832966   -0.5559276323
N        0.9369956081    1.3865071719   -0.5094835231
H        2.6240597982    0.2394188089   -0.1301715307
H        1.0034005867   -1.9120874673   -0.2366437791
H       -1.3041684837   -0.9403965751   -1.5465843774
H       -1.9405892945    0.7301172113    1.1823691791
H       -1.1364718226    1.7728025567   -1.0154457198
C       -0.1506101745   -0.6084357655    1.2012561475
H       -0.0833598323   -1.0680076858    2.1780899358
$end

$rem
method                b3lyp
basis                 6-31+g(d,p)
unrestricted          true
symmetry              off
sym_ignore            true
incdft                false
incfock               0
scf_convergence       6
thresh                14
jobtype               sp
scf_guess             read
scf_algorithm         diis
max_scf_cycles        100
stability_analysis    true
max_cis_cycles        100
cis_n_roots           4
$end

--------------------------------------------------------------

             Standard Nuclear Orientation (Angstroms)
    I     Atom           X                Y                Z
 ----------------------------------------------------------------
    1      C       1.5472061022     0.2800652443    -0.2862040863
    2      C       0.6018095335    -0.9085822596    -0.0935878209
    3      C      -0.5979932680    -0.4056680691    -0.9271138246
    4      C      -1.0219831915     0.3781443506     0.7188235532
    5      C      -0.4879944911     1.0310832966    -0.5559276323
    6      N       0.9369956081     1.3865071719    -0.5094835231
    7      H       2.6240597982     0.2394188089    -0.1301715307
    8      H       1.0034005867    -1.9120874673    -0.2366437791
    9      H      -1.3041684837    -0.9403965751    -1.5465843774
   10      H      -1.9405892945     0.7301172113     1.1823691791
   11      H      -1.1364718226     1.7728025567    -1.0154457198
   12      C      -0.1506101745    -0.6084357655     1.2012561475
   13      H      -0.0833598323    -1.0680076858     2.1780899358
 ----------------------------------------------------------------

    2    -286.8474999825      2.81E-09 Convergence criterion met
 Total energy in the final basis set = -286.84749998

         TDDFT/TDA Excitation Energies
 ---------------------------------------------------

 Excited state   1: excitation energy (eV) =    2.5760
 Total energy for state  1:                  -286.75283470 au
    <S**2>     :  0.7764
    Trans. Mom.:  0.2828 X   0.0917 Y   0.3499 Z
    Strength   :     0.0133047532
    S(  1) --> V(  1) amplitude =  0.8823 alpha
    S(  1) --> V(  2) amplitude =  0.3723 alpha
    D( 24) --> S(  1) amplitude = -0.1837 beta

 Excited state   2: excitation energy (eV) =    2.8631
 Total energy for state  2:                  -286.74228406 au
    <S**2>     :  0.7998
    Trans. Mom.: -0.4034 X  -0.2023 Y   0.2788 Z
    Strength   :     0.0197385723
    S(  1) --> V(  1) amplitude = -0.4166 alpha
    S(  1) --> V(  2) amplitude =  0.8715 alpha
    D( 24) --> S(  1) amplitude = -0.1588 beta

 Excited state   3: excitation energy (eV) =    3.4064
 Total energy for state  3:                  -286.72231662 au
    <S**2>     :  0.7861
    Trans. Mom.:  0.0096 X   0.1074 Y   0.2610 Z
    Strength   :     0.0066568255
    S(  1) --> V(  3) amplitude =  0.9857 alpha

 Excited state   4: excitation energy (eV) =    3.9450
 Total energy for state  4:                  -286.70252528 au
    <S**2>     :  0.7900
    Trans. Mom.:  0.2015 X  -0.1076 Y   0.1368 Z
    Strength   :     0.0068512521
    S(  1) --> V(  4) amplitude =  0.9815 alpha

 ---------------------------------------------------

                    Orbital Energies (a.u.)
 --------------------------------------------------------------

 Alpha MOs
 -- Occupied --
-14.330 -10.235 -10.230 -10.228 -10.225 -10.221 -10.207  -0.973
 -0.850  -0.750  -0.696  -0.601  -0.585  -0.547  -0.522  -0.473
 -0.444  -0.425  -0.408  -0.378  -0.356  -0.296  -0.284  -0.278
 -0.158

 Beta MOs
 -- Occupied --
-14.329 -10.235 -10.231 -10.230 -10.222 -10.217 -10.197  -0.969
 -0.842  -0.747  -0.684  -0.597  -0.577  -0.541  -0.519  -0.464
 -0.441  -0.419  -0.406  -0.373  -0.351  -0.287  -0.275  -0.266

          Ground-State Mulliken Net Atomic Charges

     Atom                 Charge (a.u.)    Spin (a.u.)
  --------------------------------------------------------
      1 C                    -0.071242      -0.001772
      2 C                     0.006042      -0.101955
      3 C                    -0.199624       0.600675
      4 C                    -0.101481      -0.236357
      5 C                    -0.135592      -0.019050
      6 N                    -0.178734       0.062352
      7 H                     0.132217       0.001589
      8 H                     0.129394       0.011010
      9 H                     0.146867      -0.025594
     10 H                     0.138993       0.010750
     11 H                     0.138685       0.004554
     12 C                    -0.144164       0.720573
     13 H                     0.138637      -0.026774
  --------------------------------------------------------
  Sum of atomic charges =    -0.000000

                    Cartesian Multipole Moments
 -----------------------------------------------------------------
    Charge (ESU x 10^10)
                -0.0000
    Dipole Moment (Debye)
         X      -1.3369      Y      -2.1822      Z       0.3470
       Tot       2.5826
    Quadrupole Moments (Debye-Ang)
        XX     -38.7225     XY      -5.3161     YY     -44.8307
        XZ       1.2998     YZ       0.9441     ZZ     -41.8397

 Total job time:  201.58s(wall), 183.68s(cpu)
        *  Thank you very much for using Q-Chem.  Have a nice day.  *
