 Q-Chem 5.0, Q-Chem, Inc., Pleasanton, CA (2017)
 Q-Chem 5.0.2 for Intel X86 EM64T Linux

User input:
--------------------------------------------------------------
$molecule
0 2
C        1.5472061022    0.2800652443   -0.2862040863
C        0.6018095335   -0.9085822596   -0.0935878209
C       -0.5979932680   -0.4056680691   -0.9271138246
C       -1.0219831915    0.3781443506    0.7188235532
C       -0.4879944911    1.0310832966   -0.5559276323
N        0.9369956081    1.3865071719   -0.5094835231
H        2.6240597982    0.2394188089   -0.1301715307
H        1.0034005867   -1.9120874673   -0.2366437791
H       -1.3041684837   -0.9403965751   -1.5465843774
H       -1.9405892945    0.7301172113    1.1823691791
H       -1.1364718226    1.7728025567   -1.0154457198
C       -0.1506101745   -0.6084357655    1.2012561475
H       -0.0833598323   -1.0680076858    2.1780899358
$end

$rem
method                b3lyp
basis                 6-31g(d)
unrestricted          true
symmetry              off
sym_ignore            true
incdft                false
incfock               0
scf_convergence       6
thresh                14
jobtype               sp
scf_guess             read
scf_algorithm         diis
max_scf_cycles        100
stability_analysis    true
max_cis_cycles        100
cis_n_roots           4
$end

--------------------------------------------------------------

             Standard Nuclear Orientation (Angstroms)
    I     Atom           X                Y                Z
 ----------------------------------------------------------------
    1      C       1.5472061022     0.2800652443    -0.2862040863
    2      C       0.6018095335    -0.9085822596    -0.0935878209
    3      C      -0.5979932680    -0.4056680691    -0.9271138246
    4      C      -1.0219831915     0.3781443506     0.7188235532
    5      C      -0.4879944911     1.0310832966    -0.5559276323
    6      N       0.9369956081     1.3865071719    -0.5094835231
    7      H       2.6240597982     0.2394188089    -0.1301715307
    8      H       1.0034005867    -1.9120874673    -0.2366437791
    9      H      -1.3041684837    -0.9403965751    -1.5465843774
   10      H      -1.9405892945     0.7301172113     1.1823691791
   11      H      -1.1364718226     1.7728025567    -1.0154457198
   12      C      -0.1506101745    -0.6084357655     1.2012561475
   13      H      -0.0833598323    -1.0680076858     2.1780899358
 ----------------------------------------------------------------

    2    -286.8244730316      2.54E-09 Convergence criterion met
 Total energy in the final basis set = -286.82447303

         TDDFT/TDA Excitation Energies
 ---------------------------------------------------

 Excited state   1: excitation energy (eV) =    2.7819
 Total energy for state  1:                  -286.72223840 au
    <S**2>     :  0.7827
    Trans. Mom.:  0.2862 X   0.1206 Y   0.2515 Z
    Strength   :     0.0108851821
    S(  1) --> V(  1) amplitude =  0.8141 alpha
    S(  1) --> V(  2) amplitude = -0.5050 alpha
    D( 24) --> S(  1) amplitude = -0.1936 beta

 Excited state   2: excitation energy (eV) =    3.0686
 Total energy for state  2:                  -286.71170223 au
    <S**2>     :  0.8068
    Trans. Mom.:  0.3078 X   0.1672 Y  -0.2687 Z
    Strength   :     0.0146524443
    S(  1) --> V(  1) amplitude =  0.5485 alpha
    S(  1) --> V(  2) amplitude =  0.7904 alpha
    D( 24) --> S(  1) amplitude =  0.2213 beta

 Excited state   3: excitation energy (eV) =    4.4659
 Total energy for state  3:                  -286.66035396 au
    <S**2>     :  1.8454
    Trans. Mom.: -0.1037 X  -0.1475 Y   0.0391 Z
    Strength   :     0.0037261188
    D( 22) --> V(  1) amplitude = -0.1846 alpha
    D( 23) --> V(  1) amplitude = -0.3534 alpha
    D( 24) --> V(  1) amplitude = -0.1899 alpha
    D( 22) --> S(  1) amplitude =  0.2885 beta
    D( 22) --> V(  1) amplitude =  0.1685 beta
    D( 23) --> S(  1) amplitude =  0.6724 beta
    D( 23) --> V(  1) amplitude =  0.2426 beta
    D( 24) --> S(  1) amplitude =  0.2721 beta

 Excited state   4: excitation energy (eV) =    4.5345
 Total energy for state  4:                  -286.65783486 au
    <S**2>     :  1.5851
    Trans. Mom.: -0.0263 X  -0.0826 Y   0.2895 Z
    Strength   :     0.0101465702
    D( 22) --> V(  1) amplitude =  0.1769 alpha
    D( 23) --> V(  1) amplitude =  0.1974 alpha
    D( 24) --> V(  1) amplitude = -0.1868 alpha
    S(  1) --> V(  2) amplitude = -0.1686 alpha
    D( 22) --> S(  1) amplitude = -0.4227 beta
    D( 22) --> V(  1) amplitude = -0.2141 beta
    D( 24) --> S(  1) amplitude =  0.7227 beta
    D( 24) --> V(  1) amplitude =  0.2441 beta

 ---------------------------------------------------

                    Orbital Energies (a.u.)
 --------------------------------------------------------------

 Alpha MOs
 -- Occupied --
-14.314 -10.224 -10.218 -10.216 -10.212 -10.209 -10.193  -0.959
 -0.836  -0.739  -0.685  -0.590  -0.575  -0.538  -0.513  -0.461
 -0.433  -0.413  -0.398  -0.367  -0.345  -0.284  -0.271  -0.264
 -0.145

 Beta MOs
 -- Occupied --
-14.313 -10.224 -10.219 -10.218 -10.210 -10.204 -10.184  -0.955
 -0.828  -0.735  -0.673  -0.586  -0.566  -0.531  -0.510  -0.453
 -0.429  -0.408  -0.396  -0.362  -0.340  -0.274  -0.261  -0.251

          Ground-State Mulliken Net Atomic Charges

     Atom                 Charge (a.u.)    Spin (a.u.)
  --------------------------------------------------------
      1 C                     0.091558       0.008789
      2 C                    -0.258880      -0.069058
      3 C                    -0.128069       0.570212
      4 C                    -0.132516      -0.216071
      5 C                    -0.028383       0.004294
      6 N                    -0.338708       0.064124
      7 H                     0.143591       0.001569
      8 H                     0.137622       0.010522
      9 H                     0.158486      -0.027811
     10 H                     0.147993       0.011846
     11 H                     0.146721       0.004261
     12 C                    -0.081394       0.664337
     13 H                     0.141979      -0.027013
  --------------------------------------------------------
  Sum of atomic charges =     0.000000

                    Cartesian Multipole Moments
 -----------------------------------------------------------------
    Charge (ESU x 10^10)
                 0.0000
    Dipole Moment (Debye)
         X      -1.2479      Y      -2.0036      Z       0.3520
       Tot       2.3865
    Quadrupole Moments (Debye-Ang)
        XX     -37.5894     XY      -4.6093     YY     -43.3518
        XZ       1.2603     YZ       0.8951     ZZ     -40.0322

 Total job time:  89.77s(wall), 82.76s(cpu)
        *  Thank you very much for using Q-Chem.  Have a nice day.  *
