 Q-Chem 5.0, Q-Chem, Inc., Pleasanton, CA (2017)
 Q-Chem 5.0.2 for Intel X86 EM64T Linux

User input:
--------------------------------------------------------------
$molecule
0 2
C        1.5472061022    0.2800652443   -0.2862040863
C        0.6018095335   -0.9085822596   -0.0935878209
C       -0.5979932680   -0.4056680691   -0.9271138246
C       -1.0219831915    0.3781443506    0.7188235532
C       -0.4879944911    1.0310832966   -0.5559276323
N        0.9369956081    1.3865071719   -0.5094835231
H        2.6240597982    0.2394188089   -0.1301715307
H        1.0034005867   -1.9120874673   -0.2366437791
H       -1.3041684837   -0.9403965751   -1.5465843774
H       -1.9405892945    0.7301172113    1.1823691791
H       -1.1364718226    1.7728025567   -1.0154457198
C       -0.1506101745   -0.6084357655    1.2012561475
H       -0.0833598323   -1.0680076858    2.1780899358
$end

$rem
method                b3lyp
basis                 6-31+g(d,p)
unrestricted          true
symmetry              off
sym_ignore            true
incdft                false
incfock               0
scf_convergence       8
thresh                14
jobtype               ts
scf_guess             read
scf_algorithm         diis
max_scf_cycles        100
geom_opt_max_cycles   500
geom_opt_dmax         100
geom_opt_tol_gradient 10
geom_opt_hessian      read
$end

--------------------------------------------------------------

    2    -286.8474999825      9.40E-10 Convergence criterion met
 Total energy in the final basis set = -286.84749998
   13    -286.8475363216      3.30E-09 Convergence criterion met
 Total energy in the final basis set = -286.84753632
   12    -286.8475416751      8.05E-09 Convergence criterion met
 Total energy in the final basis set = -286.84754168

             Standard Nuclear Orientation (Angstroms)
    I     Atom           X                Y                Z
 ----------------------------------------------------------------
    1      C       1.5506065162     0.2803994465    -0.2892573610
    2      C       0.6047837130    -0.9061184098    -0.0892157004
    3      C      -0.6032590357    -0.4070503466    -0.9169950063
    4      C      -1.0198561065     0.3833713355     0.7221182156
    5      C      -0.4893894467     1.0316219733    -0.5574950661
    6      N       0.9353916561     1.3849595110    -0.5175701500
    7      H       2.6272799519     0.2418187136    -0.1382494709
    8      H       1.0058778511    -1.9093905295    -0.2289829027
    9      H      -1.2983069422    -0.9393963231    -1.5512251666
   10      H      -1.9386224598     0.7331748314     1.1847142032
   11      H      -1.1391276644     1.7711340482    -1.0163192750
   12      C      -0.1433175524    -0.6005918445     1.2072156373
   13      H      -0.1017594102    -1.0889715881     2.1706385643
 ----------------------------------------------------------------

    9    -286.8475417248      6.81E-09 Convergence criterion met
 Total energy in the final basis set = -286.84754172
 Final energy is   -286.847541724790
 **  OPTIMIZATION CONVERGED  **

                    Orbital Energies (a.u.)
 --------------------------------------------------------------

 Alpha MOs
 -- Occupied --
-14.330 -10.235 -10.230 -10.229 -10.226 -10.221 -10.206  -0.972
 -0.849  -0.751  -0.696  -0.602  -0.585  -0.548  -0.522  -0.472
 -0.444  -0.424  -0.409  -0.378  -0.356  -0.296  -0.284  -0.277
 -0.157

 Beta MOs
 -- Occupied --
-14.329 -10.235 -10.231 -10.230 -10.222 -10.217 -10.197  -0.968
 -0.842  -0.747  -0.684  -0.598  -0.577  -0.541  -0.519  -0.463
 -0.441  -0.419  -0.406  -0.373  -0.351  -0.287  -0.275  -0.265

          Ground-State Mulliken Net Atomic Charges

     Atom                 Charge (a.u.)    Spin (a.u.)
  --------------------------------------------------------
      1 C                    -0.070023      -0.002366
      2 C                     0.000529      -0.101942
      3 C                    -0.199028       0.595352
      4 C                    -0.104158      -0.233046
      5 C                    -0.133411      -0.021302
      6 N                    -0.179334       0.062245
      7 H                     0.132745       0.001542
      8 H                     0.129116       0.010519
      9 H                     0.145886      -0.024360
     10 H                     0.139256       0.010262
     11 H                     0.138958       0.004298
     12 C                    -0.139657       0.727818
     13 H                     0.139120      -0.029020
  --------------------------------------------------------
  Sum of atomic charges =     0.000000

                    Cartesian Multipole Moments
 -----------------------------------------------------------------
    Charge (ESU x 10^10)
                -0.0000
    Dipole Moment (Debye)
         X      -1.3549      Y      -2.2031      Z       0.3233
       Tot       2.6065
    Quadrupole Moments (Debye-Ang)
        XX     -38.6943     XY      -5.3181     YY     -44.7790
        XZ       1.2221     YZ       0.9144     ZZ     -41.8863

 Total job time:  92.67s(wall), 259.03s(cpu)
        *  Thank you very much for using Q-Chem.  Have a nice day.  *
