 Q-Chem 5.0, Q-Chem, Inc., Pleasanton, CA (2017)
 Q-Chem 5.0.2 for Intel X86 EM64T Linux

User input:
--------------------------------------------------------------
$molecule
0 2
C        1.5472061022    0.2800652443   -0.2862040863
C        0.6018095335   -0.9085822596   -0.0935878209
C       -0.5979932680   -0.4056680691   -0.9271138246
C       -1.0219831915    0.3781443506    0.7188235532
C       -0.4879944911    1.0310832966   -0.5559276323
N        0.9369956081    1.3865071719   -0.5094835231
H        2.6240597982    0.2394188089   -0.1301715307
H        1.0034005867   -1.9120874673   -0.2366437791
H       -1.3041684837   -0.9403965751   -1.5465843774
H       -1.9405892945    0.7301172113    1.1823691791
H       -1.1364718226    1.7728025567   -1.0154457198
C       -0.1506101745   -0.6084357655    1.2012561475
H       -0.0833598323   -1.0680076858    2.1780899358
$end

$rem
method                b3lyp
basis                 6-31+g(d,p)
unrestricted          true
symmetry              off
sym_ignore            true
incdft                false
incfock               0
scf_convergence       8
thresh                14
jobtype               freq
scf_guess             read
scf_algorithm         diis
max_scf_cycles        100
$end

--------------------------------------------------------------

             Standard Nuclear Orientation (Angstroms)
    I     Atom           X                Y                Z
 ----------------------------------------------------------------
    1      C       1.5472061022     0.2800652443    -0.2862040863
    2      C       0.6018095335    -0.9085822596    -0.0935878209
    3      C      -0.5979932680    -0.4056680691    -0.9271138246
    4      C      -1.0219831915     0.3781443506     0.7188235532
    5      C      -0.4879944911     1.0310832966    -0.5559276323
    6      N       0.9369956081     1.3865071719    -0.5094835231
    7      H       2.6240597982     0.2394188089    -0.1301715307
    8      H       1.0034005867    -1.9120874673    -0.2366437791
    9      H      -1.3041684837    -0.9403965751    -1.5465843774
   10      H      -1.9405892945     0.7301172113     1.1823691791
   11      H      -1.1364718226     1.7728025567    -1.0154457198
   12      C      -0.1506101745    -0.6084357655     1.2012561475
   13      H      -0.0833598323    -1.0680076858     2.1780899358
 ----------------------------------------------------------------

    2    -286.8474999824      1.99E-09 Convergence criterion met
 Total energy in the final basis set = -286.84749998

                    Orbital Energies (a.u.)
 --------------------------------------------------------------

 Alpha MOs
 -- Occupied --
-14.330 -10.235 -10.230 -10.228 -10.225 -10.221 -10.207  -0.973
 -0.850  -0.750  -0.696  -0.601  -0.585  -0.547  -0.522  -0.473
 -0.444  -0.425  -0.408  -0.378  -0.356  -0.296  -0.284  -0.278
 -0.158

 Beta MOs
 -- Occupied --
-14.329 -10.235 -10.231 -10.230 -10.222 -10.217 -10.197  -0.969
 -0.842  -0.747  -0.684  -0.597  -0.577  -0.541  -0.519  -0.464
 -0.441  -0.419  -0.406  -0.373  -0.351  -0.287  -0.275  -0.266

          Ground-State Mulliken Net Atomic Charges

     Atom                 Charge (a.u.)    Spin (a.u.)
  --------------------------------------------------------
      1 C                    -0.071242      -0.001769
      2 C                     0.006042      -0.101956
      3 C                    -0.199624       0.600675
      4 C                    -0.101481      -0.236358
      5 C                    -0.135592      -0.019050
      6 N                    -0.178734       0.062349
      7 H                     0.132217       0.001589
      8 H                     0.129394       0.011010
      9 H                     0.146867      -0.025594
     10 H                     0.138993       0.010750
     11 H                     0.138685       0.004554
     12 C                    -0.144164       0.720573
     13 H                     0.138637      -0.026774
  --------------------------------------------------------
  Sum of atomic charges =    -0.000000

                    Cartesian Multipole Moments
 -----------------------------------------------------------------
    Charge (ESU x 10^10)
                -0.0000
    Dipole Moment (Debye)
         X      -1.3369      Y      -2.1822      Z       0.3470
       Tot       2.5826
    Quadrupole Moments (Debye-Ang)
        XX     -38.7225     XY      -5.3161     YY     -44.8307
        XZ       1.2998     YZ       0.9441     ZZ     -41.8397

 Frequency:      -668.87                 358.92                 394.45
 Force Cnst:      1.3781                 0.0915                 0.1054
 Red. Mass:       5.2282                 1.2057                 1.1503
 IR Intens:       37.531                 15.708                 30.777
 Frequency:       443.28                 481.16                 603.46
 Force Cnst:      0.3609                 0.5568                 0.9991
 Red. Mass:       3.1172                 4.0819                 4.6564
 IR Intens:       12.130                  7.560                 15.642
 Frequency:       741.49                 783.27                 829.03
 Force Cnst:      1.9632                 2.6146                 0.8798
 Red. Mass:       6.0605                 7.2332                 2.1727
 IR Intens:        3.170                  5.185                 17.286
 Frequency:       851.11                 884.19                 895.47
 Force Cnst:      1.8773                 0.9958                 0.7073
 Red. Mass:       4.3985                 2.1618                 1.4971
 IR Intens:       10.395                  7.972                  2.443
 Frequency:       913.54                 927.90                 957.37
 Force Cnst:      0.9869                 0.8078                 1.1164
 Red. Mass:       2.0071                 1.5924                 2.0674
 IR Intens:        0.555                 21.333                  2.145
 Frequency:       973.76                1026.34                1087.47
 Force Cnst:      1.1539                 1.2837                 1.1984
 Red. Mass:       2.0656                 2.0684                 1.7200
 IR Intens:        2.580                  3.483                  5.150
 Frequency:      1140.80                1177.49                1216.64
 Force Cnst:      1.2877                 1.4394                 1.3509
 Red. Mass:       1.6794                 1.7620                 1.5490
 IR Intens:       15.085                  1.767                  6.190
 Frequency:      1244.64                1276.22                1320.84
 Force Cnst:      1.4454                 1.2083                 1.5478
 Red. Mass:       1.5836                 1.2591                 1.5058
 IR Intens:        6.553                  1.033                  5.079
 Frequency:      1324.64                1412.47                1634.15
 Force Cnst:      1.7814                 3.2577                11.9025
 Red. Mass:       1.7231                 2.7714                 7.5649
 IR Intens:       17.289                  1.807                 44.603
 Frequency:      3138.83                3174.23                3175.49
 Force Cnst:      6.3278                 6.4753                 6.4976
 Red. Mass:       1.0901                 1.0908                 1.0937
 IR Intens:       17.466                 20.373                  8.772
 Frequency:      3185.24                3251.37                3265.80
 Force Cnst:      6.5330                 6.8250                 6.8847
 Red. Mass:       1.0929                 1.0958                 1.0956
 IR Intens:       19.551                  1.824                  0.413

 STANDARD THERMODYNAMIC QUANTITIES AT   298.15 K  AND     1.00 ATM

   This Molecule has  1 Imaginary Frequencies
   Zero point vibrational energy:       63.031 kcal/mol

   Atom    1 Element C  Has Mass   12.00000
   Atom    2 Element C  Has Mass   12.00000
   Atom    3 Element C  Has Mass   12.00000
   Atom    4 Element C  Has Mass   12.00000
   Atom    5 Element C  Has Mass   12.00000
   Atom    6 Element N  Has Mass   14.00307
   Atom    7 Element H  Has Mass    1.00783
   Atom    8 Element H  Has Mass    1.00783
   Atom    9 Element H  Has Mass    1.00783
   Atom   10 Element H  Has Mass    1.00783
   Atom   11 Element H  Has Mass    1.00783
   Atom   12 Element C  Has Mass   12.00000
   Atom   13 Element H  Has Mass    1.00783
   Molecular Mass:    92.050050 amu
   Principal axes and moments of inertia in amu*Bohr^2:
                             1           2           3
    Eigenvalues --      376.94201   456.79182   565.63425
          X               0.73322    -0.64913     0.20253
          Y               0.48912     0.71038     0.50608
          Z              -0.47238    -0.27201     0.83837
   Rotational Symmetry Number is   1
   The Molecule is an Asymmetric Top
   Translational Enthalpy:        0.889 kcal/mol
   Rotational Enthalpy:           0.889 kcal/mol
   Vibrational Enthalpy:         64.359 kcal/mol
   gas constant (RT):             0.592 kcal/mol
   Translational Entropy:        39.471  cal/mol.K
   Rotational Entropy:           26.079  cal/mol.K
   Vibrational Entropy:           6.101  cal/mol.K

   Total Enthalpy:               66.729 kcal/mol
   Total Entropy:                71.651  cal/mol.K

 Total job time:  582.05s(wall), 560.36s(cpu)
        *  Thank you very much for using Q-Chem.  Have a nice day.  *
