 Q-Chem 5.0, Q-Chem, Inc., Pleasanton, CA (2017)
 Q-Chem 5.0.2 for Intel X86 EM64T Linux

User input:
--------------------------------------------------------------
$molecule
0 2
C        1.5583654825    0.3155499394   -0.3012951530
C        0.6527588157   -0.9035715320   -0.1027010661
C       -0.6118307096   -0.4233815181   -0.8157790109
C       -1.0328212448    0.3948041179    0.7194191375
C       -0.4810323184    1.0308415698   -0.5593056626
N        0.9264053449    1.4090220359   -0.5168975280
H        2.6412788445    0.3046859935   -0.1957210126
H        1.1144699778   -1.8751780942   -0.3099955817
H       -1.2768257090   -1.0083934510   -1.4379233267
H       -1.8285754563    0.9157714794    1.2615587364
H       -1.1380020775    1.7083064645   -1.0994485217
C       -0.1922190193   -0.6298491046    1.2281217383
H       -0.3416708599   -1.2636470826    2.1093437724
$end

$rem
method                b3lyp
basis                 6-31g(d)
unrestricted          true
symmetry              off
sym_ignore            true
incdft                false
incfock               0
scf_convergence       8
thresh                14
jobtype               ts
scf_guess             read
scf_algorithm         diis
max_scf_cycles        100
geom_opt_max_cycles   500
geom_opt_dmax         100
geom_opt_tol_gradient 10
geom_opt_hessian      read
$end

--------------------------------------------------------------

    2    -286.8127806448      1.29E-09 Convergence criterion met
 Total energy in the final basis set = -286.81278064
   14    -286.8154808768      7.22E-09 Convergence criterion met
 Total energy in the final basis set = -286.81548088
   13    -286.8176981902      9.61E-09 Convergence criterion met
 Total energy in the final basis set = -286.81769819
   13    -286.8194600302      7.79E-09 Convergence criterion met
 Total energy in the final basis set = -286.81946003
   13    -286.8208383546      6.38E-09 Convergence criterion met
 Total energy in the final basis set = -286.82083835
   13    -286.8219020453      5.34E-09 Convergence criterion met
 Total energy in the final basis set = -286.82190205
   13    -286.8227071534      4.65E-09 Convergence criterion met
 Total energy in the final basis set = -286.82270715
   13    -286.8232940139      4.18E-09 Convergence criterion met
   13    -286.8243091463      3.16E-09 Convergence criterion met
 Total energy in the final basis set = -286.82430915
   13    -286.8243946648      2.87E-09 Convergence criterion met
 Total energy in the final basis set = -286.82439466
   13    -286.8244474446      2.63E-09 Convergence criterion met
 Total energy in the final basis set = -286.82444744
   13    -286.8244713811      2.52E-09 Convergence criterion met
 Total energy in the final basis set = -286.82447138
   11    -286.8244729469      7.01E-09 Convergence criterion met
 Total energy in the final basis set = -286.82447295
   10    -286.8244730175      7.30E-09 Convergence criterion met
 Total energy in the final basis set = -286.82447302

             Standard Nuclear Orientation (Angstroms)
    I     Atom           X                Y                Z
 ----------------------------------------------------------------
    1      C       1.5472061022     0.2800652443    -0.2862040863
    2      C       0.6018095335    -0.9085822596    -0.0935878209
    3      C      -0.5979932680    -0.4056680691    -0.9271138246
    4      C      -1.0219831915     0.3781443506     0.7188235532
    5      C      -0.4879944911     1.0310832966    -0.5559276323
    6      N       0.9369956081     1.3865071719    -0.5094835231
    7      H       2.6240597982     0.2394188089    -0.1301715307
    8      H       1.0034005867    -1.9120874673    -0.2366437791
    9      H      -1.3041684837    -0.9403965751    -1.5465843774
   10      H      -1.9405892945     0.7301172113     1.1823691791
   11      H      -1.1364718226     1.7728025567    -1.0154457198
   12      C      -0.1506101745    -0.6084357655     1.2012561475
   13      H      -0.0833598323    -1.0680076858     2.1780899358
 ----------------------------------------------------------------

    8    -286.8244730316      9.34E-09 Convergence criterion met
 Total energy in the final basis set = -286.82447303
 Final energy is   -286.824473031628
 **  OPTIMIZATION CONVERGED  **

                    Orbital Energies (a.u.)
 --------------------------------------------------------------

 Alpha MOs
 -- Occupied --
-14.314 -10.224 -10.218 -10.216 -10.212 -10.209 -10.193  -0.959
 -0.836  -0.739  -0.685  -0.590  -0.575  -0.538  -0.513  -0.461
 -0.433  -0.413  -0.398  -0.367  -0.345  -0.284  -0.271  -0.264
 -0.145

 Beta MOs
 -- Occupied --
-14.313 -10.224 -10.219 -10.218 -10.210 -10.204 -10.184  -0.955
 -0.828  -0.735  -0.673  -0.586  -0.566  -0.531  -0.510  -0.453
 -0.429  -0.408  -0.396  -0.362  -0.340  -0.274  -0.261  -0.251

          Ground-State Mulliken Net Atomic Charges

     Atom                 Charge (a.u.)    Spin (a.u.)
  --------------------------------------------------------
      1 C                     0.091558       0.008787
      2 C                    -0.258880      -0.069058
      3 C                    -0.128068       0.570216
      4 C                    -0.132516      -0.216073
      5 C                    -0.028383       0.004293
      6 N                    -0.338708       0.064126
      7 H                     0.143591       0.001570
      8 H                     0.137622       0.010522
      9 H                     0.158486      -0.027812
     10 H                     0.147993       0.011846
     11 H                     0.146721       0.004261
     12 C                    -0.081394       0.664335
     13 H                     0.141979      -0.027013
  --------------------------------------------------------
  Sum of atomic charges =    -0.000000

                    Cartesian Multipole Moments
 -----------------------------------------------------------------
    Charge (ESU x 10^10)
                 0.0000
    Dipole Moment (Debye)
         X      -1.2478      Y      -2.0036      Z       0.3520
       Tot       2.3865
    Quadrupole Moments (Debye-Ang)
        XX     -37.5894     XY      -4.6093     YY     -43.3518
        XZ       1.2603     YZ       0.8951     ZZ     -40.0322

 Total job time:  271.66s(wall), 705.28s(cpu)
        *  Thank you very much for using Q-Chem.  Have a nice day.  *
