 Q-Chem 5.0, Q-Chem, Inc., Pleasanton, CA (2017)
 Q-Chem 5.0.2 for Intel X86 EM64T Linux

User input:
--------------------------------------------------------------
$molecule
0 2
C        1.5583654825    0.3155499394   -0.3012951530
C        0.6527588157   -0.9035715320   -0.1027010661
C       -0.6118307096   -0.4233815181   -0.8157790109
C       -1.0328212448    0.3948041179    0.7194191375
C       -0.4810323184    1.0308415698   -0.5593056626
N        0.9264053449    1.4090220359   -0.5168975280
H        2.6412788445    0.3046859935   -0.1957210126
H        1.1144699778   -1.8751780942   -0.3099955817
H       -1.2768257090   -1.0083934510   -1.4379233267
H       -1.8285754563    0.9157714794    1.2615587364
H       -1.1380020775    1.7083064645   -1.0994485217
C       -0.1922190193   -0.6298491046    1.2281217383
H       -0.3416708599   -1.2636470826    2.1093437724
$end

$rem
method                b3lyp
basis                 6-31g(d)
unrestricted          true
symmetry              off
sym_ignore            true
incdft                false
incfock               0
scf_convergence       8
thresh                14
jobtype               sp
scf_guess             core
scf_guess_mix         5
scf_algorithm         diis
max_scf_cycles        100
$end

--------------------------------------------------------------

             Standard Nuclear Orientation (Angstroms)
    I     Atom           X                Y                Z
 ----------------------------------------------------------------
    1      C       1.5583654825     0.3155499394    -0.3012951530
    2      C       0.6527588157    -0.9035715320    -0.1027010661
    3      C      -0.6118307096    -0.4233815181    -0.8157790109
    4      C      -1.0328212448     0.3948041179     0.7194191375
    5      C      -0.4810323184     1.0308415698    -0.5593056626
    6      N       0.9264053449     1.4090220359    -0.5168975280
    7      H       2.6412788445     0.3046859935    -0.1957210126
    8      H       1.1144699778    -1.8751780942    -0.3099955817
    9      H      -1.2768257090    -1.0083934510    -1.4379233267
   10      H      -1.8285754563     0.9157714794     1.2615587364
   11      H      -1.1380020775     1.7083064645    -1.0994485217
   12      C      -0.1922190193    -0.6298491046     1.2281217383
   13      H      -0.3416708599    -1.2636470826     2.1093437724
 ----------------------------------------------------------------

   23    -286.8127806448      5.68E-09 Convergence criterion met
 Total energy in the final basis set = -286.81278064

                    Orbital Energies (a.u.)
 --------------------------------------------------------------

 Alpha MOs
 -- Occupied --
-14.315 -10.224 -10.220 -10.218 -10.217 -10.213 -10.196  -0.961
 -0.842  -0.737  -0.681  -0.591  -0.578  -0.537  -0.513  -0.457
 -0.431  -0.408  -0.400  -0.374  -0.327  -0.300  -0.272  -0.264
 -0.130

 Beta MOs
 -- Occupied --
-14.315 -10.224 -10.222 -10.218 -10.214 -10.210 -10.185  -0.957
 -0.834  -0.734  -0.669  -0.586  -0.571  -0.531  -0.509  -0.449
 -0.429  -0.402  -0.398  -0.369  -0.322  -0.284  -0.267  -0.255

          Ground-State Mulliken Net Atomic Charges

     Atom                 Charge (a.u.)    Spin (a.u.)
  --------------------------------------------------------
      1 C                     0.091754       0.025259
      2 C                    -0.254042      -0.061813
      3 C                    -0.124920       0.434812
      4 C                    -0.151038      -0.167361
      5 C                    -0.012937       0.004793
      6 N                    -0.339925       0.030919
      7 H                     0.143860       0.000641
      8 H                     0.138501       0.007273
      9 H                     0.158500      -0.016365
     10 H                     0.154334       0.006813
     11 H                     0.149857       0.003441
     12 C                    -0.098657       0.770626
     13 H                     0.144714      -0.039037
  --------------------------------------------------------
  Sum of atomic charges =    -0.000000

                    Cartesian Multipole Moments
 -----------------------------------------------------------------
    Charge (ESU x 10^10)
                -0.0000
    Dipole Moment (Debye)
         X      -1.2641      Y      -1.9917      Z       0.0054
       Tot       2.3590
    Quadrupole Moments (Debye-Ang)
        XX     -37.7152     XY      -4.4652     YY     -42.9721
        XZ       0.4994     YZ       1.0557     ZZ     -40.4003

 Total job time:  29.80s(wall), 61.19s(cpu)
        *  Thank you very much for using Q-Chem.  Have a nice day.  *
