 Q-Chem 5.0, Q-Chem, Inc., Pleasanton, CA (2017)
 Q-Chem 5.0.2 for Intel X86 EM64T Linux

User input:
--------------------------------------------------------------
$molecule
0 2
C        1.2319062165    0.1748322140   -1.2788275285
C        0.4962607154   -1.1307161987   -1.1068968073
C       -0.7353390231   -0.6038545812   -2.2291080689
C       -1.0828000619    0.0561011650   -0.4643792445
C       -0.6518900314    0.9112388625   -1.9810909183
N        0.8489921120    1.3526165396   -1.5904956096
H        2.2705424740    0.2704685353   -0.8968565249
H        1.2296734678   -1.8793659789   -1.3288426807
H       -1.1602852189   -1.5900263214   -2.0689558734
H       -1.9969795198    0.4460241054    0.0056285870
H       -1.2457534535    1.5725202490   -2.5729708713
C       -0.2027999215   -0.8831950548    0.1695428916
H        0.0566747506   -0.6570856050    1.2884985542
$end

$rem
method                b3lyp
basis                 6-31g(d)
unrestricted          true
symmetry              off
sym_ignore            true
incdft                false
incfock               0
scf_convergence       8
thresh                14
jobtype               opt
scf_guess             read
scf_algorithm         diis
max_scf_cycles        100
geom_opt_tol_gradient 600
geom_opt_tol_displacement 2400
geom_opt_tol_energy   200
geom_opt_max_cycles   100
$end

--------------------------------------------------------------

    2    -286.6682355796      2.55E-09 Convergence criterion met
 Total energy in the final basis set = -286.66823558
   16    -286.7083720091      6.42E-09 Convergence criterion met
 Total energy in the final basis set = -286.70837201
   16    -286.7396552024      5.92E-09 Convergence criterion met
 Total energy in the final basis set = -286.73965520
   15    -286.7632234201      8.97E-09 Convergence criterion met
 Total energy in the final basis set = -286.76322342
   15    -286.7803670615      6.34E-09 Convergence criterion met
 Total energy in the final basis set = -286.78036706
   15    -286.7928728770      8.35E-09 Convergence criterion met
 Total energy in the final basis set = -286.79287288
   15    -286.8024337556      8.48E-09 Convergence criterion met
 Total energy in the final basis set = -286.80243376
   15    -286.8101099511      6.32E-09 Convergence criterion met
   13    -286.8514121087      6.27E-09 Convergence criterion met
 Total energy in the final basis set = -286.85141211
   12    -286.8515232469      8.14E-09 Convergence criterion met
 Total energy in the final basis set = -286.85152325
   13    -286.8515808883      5.49E-09 Convergence criterion met
 Total energy in the final basis set = -286.85158089
   11    -286.8516203310      9.99E-09 Convergence criterion met
 Total energy in the final basis set = -286.85162033
   10    -286.8516374538      8.99E-09 Convergence criterion met
 Total energy in the final basis set = -286.85163745
   12    -286.8516452122      5.54E-09 Convergence criterion met
 Total energy in the final basis set = -286.85164521

             Standard Nuclear Orientation (Angstroms)
    I     Atom           X                Y                Z
 ----------------------------------------------------------------
    1      C       1.4219521591     0.2993971309    -1.3282522749
    2      C       0.6210027495    -0.9931645142    -1.0729640958
    3      C      -0.3893097194    -0.7724955656    -2.2032189133
    4      C      -1.1360504573     0.3235501813    -0.3328340619
    5      C      -0.7090879425     0.6537388266    -1.7726153309
    6      N       0.6842146468     1.2626236461    -1.7234998993
    7      H       2.4938327240     0.4094864206    -1.1722183667
    8      H       1.1779293497    -1.9281062342    -1.0098358136
    9      H      -1.1531014326    -1.5068296091    -2.4540868316
   10      H      -1.9189308002     0.8349299907     0.2164324092
   11      H      -1.3925184766     1.2621484851    -2.3630140166
   12      C      -0.3337548422    -0.6657341269     0.0931273324
   13      H      -0.3079754521    -1.1399867005     1.0682257683
 ----------------------------------------------------------------

   10    -286.8516469058      4.74E-09 Convergence criterion met
 Total energy in the final basis set = -286.85164691
 Final energy is   -286.851646905784
 **  OPTIMIZATION CONVERGED  **

                    Orbital Energies (a.u.)
 --------------------------------------------------------------

 Alpha MOs
 -- Occupied --
-14.322 -10.223 -10.220 -10.210 -10.204 -10.201 -10.198  -0.952
 -0.821  -0.726  -0.705  -0.579  -0.573  -0.531  -0.512  -0.472
 -0.418  -0.410  -0.381  -0.373  -0.348  -0.294  -0.271  -0.258
 -0.196

 Beta MOs
 -- Occupied --
-14.321 -10.224 -10.221 -10.210 -10.200 -10.196 -10.190  -0.949
 -0.815  -0.725  -0.690  -0.577  -0.561  -0.527  -0.509  -0.463
 -0.414  -0.406  -0.380  -0.369  -0.342  -0.287  -0.261  -0.255

          Ground-State Mulliken Net Atomic Charges

     Atom                 Charge (a.u.)    Spin (a.u.)
  --------------------------------------------------------
      1 C                     0.092146      -0.008855
      2 C                    -0.245991      -0.043835
      3 C                    -0.096108       0.975603
      4 C                    -0.088117       0.040366
      5 C                    -0.094775      -0.045048
      6 N                    -0.325049       0.021879
      7 H                     0.149659      -0.000174
      8 H                     0.133858       0.002871
      9 H                     0.138809      -0.026450
     10 H                     0.146052       0.000881
     11 H                     0.139868       0.003019
     12 C                    -0.096063       0.079423
     13 H                     0.145712       0.000320
  --------------------------------------------------------
  Sum of atomic charges =    -0.000000

                    Cartesian Multipole Moments
 -----------------------------------------------------------------
    Charge (ESU x 10^10)
                -0.0000
    Dipole Moment (Debye)
         X      -0.5796      Y      -1.9160      Z       1.2775
       Tot       2.3746
    Quadrupole Moments (Debye-Ang)
        XX     -36.9252     XY      -3.1995     YY     -42.9609
        XZ       1.8899     YZ       2.6389     ZZ     -43.6998

 Total job time:  809.05s(wall), 1160.52s(cpu)
        *  Thank you very much for using Q-Chem.  Have a nice day.  *
