 Q-Chem 5.0, Q-Chem, Inc., Pleasanton, CA (2017)
 Q-Chem 5.0.2 for Intel X86 EM64T Linux

User input:
--------------------------------------------------------------
$molecule
0 2
C        1.5034257173    0.4256102473   -0.6447129529
C        1.1643634563   -0.9055051779   -0.4849171573
C       -0.0585146875   -1.4553104375    0.0413118530
C       -1.2909145474    0.6710548828    0.5416954799
C       -0.3878826480    1.6387273045    0.1460774516
N        0.8577268377    1.5847531890   -0.3831864572
H        2.4955812681    0.5967987922   -1.0682627934
H        1.9190183945   -1.6234007098   -0.7970633715
H       -0.1123109288   -2.5415903839    0.0782713015
H       -2.2326901843    1.0421855550    0.9388982936
H       -0.7301979437    2.6672387110    0.2791917913
C       -1.1407860785   -0.7612644174    0.4932767293
H       -1.9868186557   -1.3392975553    0.8594198320
$end

$rem
method                b3lyp
basis                 6-31g(d)
unrestricted          true
symmetry              off
sym_ignore            true
incdft                false
incfock               0
scf_convergence       8
thresh                14
jobtype               opt
scf_guess             read
scf_algorithm         diis
max_scf_cycles        100
geom_opt_tol_gradient 600
geom_opt_tol_displacement 2400
geom_opt_tol_energy   200
geom_opt_max_cycles   100
$end

--------------------------------------------------------------

    2    -286.9243414232      8.34E-10 Convergence criterion met
 Total energy in the final basis set = -286.92434142

             Standard Nuclear Orientation (Angstroms)
    I     Atom           X                Y                Z
 ----------------------------------------------------------------
    1      C       1.5038124828     0.4254752730    -0.6443982483
    2      C       1.1646941953    -0.9056314554    -0.4844541977
    3      C      -0.0582626622    -1.4554134507     0.0418466087
    4      C      -1.2913187986     0.6711894254     0.5413401152
    5      C      -0.3880715262     1.6389022415     0.1456391395
    6      N       0.8576896232     1.5848916905    -0.3834753990
    7      H       2.4957381082     0.5970515207    -1.0685702308
    8      H       1.9189128337    -1.6237692348    -0.7972547138
    9      H      -0.1126902271    -2.5416697971     0.0773715669
   10      H      -2.2331640850     1.0420274952     0.9386537589
   11      H      -0.7300468228     2.6675007737     0.2797141182
   12      C      -1.1406606397    -0.7612177114     0.4936921696
   13      H      -1.9866324816    -1.3393367704     0.8598953125
 ----------------------------------------------------------------

   12    -286.9243419678      3.55E-09 Convergence criterion met
 Total energy in the final basis set = -286.92434197
 Final energy is   -286.924341967775
 **  OPTIMIZATION CONVERGED  **

                    Orbital Energies (a.u.)
 --------------------------------------------------------------

 Alpha MOs
 -- Occupied --
-14.322 -10.232 -10.232 -10.212 -10.211 -10.201 -10.200  -0.922
 -0.818  -0.784  -0.693  -0.667  -0.551  -0.537  -0.518  -0.449
 -0.439  -0.414  -0.394  -0.386  -0.349  -0.322  -0.299  -0.251
 -0.162

 Beta MOs
 -- Occupied --
-14.314 -10.234 -10.233 -10.210 -10.210 -10.196 -10.196  -0.911
 -0.809  -0.777  -0.681  -0.665  -0.546  -0.535  -0.514  -0.447
 -0.438  -0.411  -0.383  -0.373  -0.348  -0.295  -0.276  -0.241

          Ground-State Mulliken Net Atomic Charges

     Atom                 Charge (a.u.)    Spin (a.u.)
  --------------------------------------------------------
      1 C                     0.036075      -0.115103
      2 C                    -0.132015       0.351191
      3 C                    -0.110810       0.088553
      4 C                    -0.130816       0.342838
      5 C                     0.034725      -0.110172
      6 N                    -0.423196       0.386928
      7 H                     0.142585       0.003524
      8 H                     0.134320      -0.018529
      9 H                     0.141981      -0.006388
     10 H                     0.134396      -0.018141
     11 H                     0.142675       0.003281
     12 C                    -0.111815       0.098902
     13 H                     0.141896      -0.006883
  --------------------------------------------------------
  Sum of atomic charges =     0.000000

                    Cartesian Multipole Moments
 -----------------------------------------------------------------
    Charge (ESU x 10^10)
                 0.0000
    Dipole Moment (Debye)
         X      -1.0433      Y      -1.9303      Z       0.4667
       Tot       2.2433
    Quadrupole Moments (Debye-Ang)
        XX     -37.4213     XY      -3.2702     YY     -40.2592
        XZ      -2.4896     YZ       1.3578     ZZ     -42.3176

 Total job time:  13.29s(wall), 49.39s(cpu)
        *  Thank you very much for using Q-Chem.  Have a nice day.  *
