 Q-Chem 5.0, Q-Chem, Inc., Pleasanton, CA (2017)
 Q-Chem 5.0.2 for Intel X86 EM64T Linux

User input:
--------------------------------------------------------------
$molecule
0 2
C        1.7037313021    0.3376744476   -2.5963676420
C        1.4263833421   -1.0110134929   -2.4149843397
C       -0.3045213724   -1.3505771149   -2.4921106554
C       -1.1831085885    0.3064907240   -1.2452000924
C       -0.6109920039    1.2828150125   -2.4206482907
N        0.5909958012    1.2294959622   -2.7475245744
H        2.5217196623    0.9622102064   -2.9340276900
H        2.1472090592   -1.8520331218   -2.5297160884
H       -0.5603431495   -1.0140777678   -3.4858200696
H       -1.0035098446    0.8342209051   -0.2713542088
H       -1.2667044546    1.9023573537   -3.0904406688
C       -1.7256986142   -0.9716230994   -1.2792542663
H       -2.0819452935   -1.7853199347   -0.5085027170
$end

$rem
method                b3lyp
basis                 6-31g(d)
unrestricted          true
symmetry              off
sym_ignore            true
incdft                false
incfock               0
scf_convergence       8
thresh                14
jobtype               opt
scf_guess             read
scf_algorithm         diis
max_scf_cycles        100
geom_opt_tol_gradient 600
geom_opt_tol_displacement 2400
geom_opt_tol_energy   200
geom_opt_max_cycles   100
$end

--------------------------------------------------------------

    2    -286.6700099000      1.33E-09 Convergence criterion met
 Total energy in the final basis set = -286.67000990
   18    -286.7182026011      2.11E-09 Convergence criterion met
 Total energy in the final basis set = -286.71820260
   17    -286.7595840624      5.87E-09 Convergence criterion met
 Total energy in the final basis set = -286.75958406
   17    -286.7926733103      3.02E-09 Convergence criterion met
 Total energy in the final basis set = -286.79267331
   16    -286.8166610585      7.72E-09 Convergence criterion met
 Total energy in the final basis set = -286.81666106
   15    -286.8325735686      9.32E-09 Convergence criterion met
 Total energy in the final basis set = -286.83257357
   15    -286.8436750383      5.57E-09 Convergence criterion met
 Total energy in the final basis set = -286.84367504
   15    -286.8523484540      5.26E-09 Convergence criterion met
   15    -286.9242986986      2.71E-09 Convergence criterion met
 Total energy in the final basis set = -286.92429870
   14    -286.9243102094      3.85E-09 Convergence criterion met
 Total energy in the final basis set = -286.92431021
   14    -286.9243200810      3.46E-09 Convergence criterion met
 Total energy in the final basis set = -286.92432008
   13    -286.9243249140      6.03E-09 Convergence criterion met
 Total energy in the final basis set = -286.92432491
   13    -286.9243287026      5.83E-09 Convergence criterion met
 Total energy in the final basis set = -286.92432870
   13    -286.9243309222      6.64E-09 Convergence criterion met
 Total energy in the final basis set = -286.92433092

             Standard Nuclear Orientation (Angstroms)
    I     Atom           X                Y                Z
 ----------------------------------------------------------------
    1      C       1.4488167555     0.3815000904    -2.8355278053
    2      C       1.1227238816    -0.9584498603    -2.7304799033
    3      C      -0.0757712119    -1.5426456259    -2.1847659124
    4      C      -1.2998617916     0.5465944287    -1.5312103195
    5      C      -0.4175759533     1.5393080684    -1.9115180806
    6      N       0.8064865696     1.5214283335    -2.4920066480
    7      H       2.4226334608     0.5816563646    -3.2880683886
    8      H       1.8679528287    -1.6545743851    -3.1080832768
    9      H      -0.1225182793    -2.6296881579    -2.2001733220
   10      H      -2.2276197595     0.8906134485    -1.0802488246
   11      H      -0.7587193721     2.5573742816    -1.7115405590
   12      C      -1.1430994843    -0.8800680526    -1.6562903814
   13      H      -1.9702317985    -1.4824288540    -1.2860378821
 ----------------------------------------------------------------

   13    -286.9243325716      7.96E-09 Convergence criterion met
 Total energy in the final basis set = -286.92433257
 Final energy is   -286.924332571606
 **  OPTIMIZATION CONVERGED  **

                    Orbital Energies (a.u.)
 --------------------------------------------------------------

 Alpha MOs
 -- Occupied --
-14.322 -10.232 -10.232 -10.212 -10.211 -10.201 -10.200  -0.922
 -0.818  -0.784  -0.693  -0.667  -0.551  -0.537  -0.518  -0.449
 -0.439  -0.414  -0.394  -0.387  -0.349  -0.322  -0.299  -0.251
 -0.162

 Beta MOs
 -- Occupied --
-14.314 -10.234 -10.233 -10.210 -10.210 -10.196 -10.196  -0.911
 -0.809  -0.777  -0.681  -0.665  -0.546  -0.535  -0.514  -0.447
 -0.438  -0.411  -0.383  -0.373  -0.348  -0.295  -0.276  -0.241

          Ground-State Mulliken Net Atomic Charges

     Atom                 Charge (a.u.)    Spin (a.u.)
  --------------------------------------------------------
      1 C                     0.036055      -0.115247
      2 C                    -0.132138       0.351544
      3 C                    -0.110856       0.088416
      4 C                    -0.130797       0.342309
      5 C                     0.034821      -0.109995
      6 N                    -0.423350       0.387096
      7 H                     0.142669       0.003530
      8 H                     0.134326      -0.018546
      9 H                     0.141966      -0.006383
     10 H                     0.134429      -0.018118
     11 H                     0.142661       0.003274
     12 C                    -0.111660       0.099007
     13 H                     0.141876      -0.006887
  --------------------------------------------------------
  Sum of atomic charges =    -0.000000

                    Cartesian Multipole Moments
 -----------------------------------------------------------------
    Charge (ESU x 10^10)
                -0.0000
    Dipole Moment (Debye)
         X      -1.0118      Y      -1.9590      Z       0.4122
       Tot       2.2431
    Quadrupole Moments (Debye-Ang)
        XX     -37.5302     XY      -2.9185     YY     -40.1092
        XZ      -0.6706     YZ       5.7413     ZZ     -43.7394

 Total job time:  1248.32s(wall), 1677.42s(cpu)
        *  Thank you very much for using Q-Chem.  Have a nice day.  *
