 Q-Chem 5.0, Q-Chem, Inc., Pleasanton, CA (2017)
 Q-Chem 5.0.2 for Intel X86 EM64T Linux

User input:
--------------------------------------------------------------
$molecule
0 2
C        1.6630518796    0.3589468088   -1.9984448365
C        0.9334607328   -0.9766053621   -1.7303391242
C       -0.6597255466   -0.8665261191   -2.0919807589
C       -1.3094040178    0.3858539431   -0.5713577353
C       -0.6700297857    0.7356178454   -1.9869192325
N        0.8902582251    1.3045581267   -2.3155072900
H        2.6768915914    0.8048705077   -1.8053571954
H        1.4409179078   -1.9166429285   -1.4602970878
H       -0.8693418728   -1.6622391780   -2.6983463026
H       -2.3794019655    0.5526306220   -0.4176937223
H       -1.4154662042    1.2737193569   -2.6458474426
C       -0.8776620672   -0.9645011497   -0.6704734833
H       -1.1630628131   -1.9887927214   -0.3695064719
$end

$rem
method                b3lyp
basis                 6-31g(d)
unrestricted          true
symmetry              off
sym_ignore            true
incdft                false
incfock               0
scf_convergence       8
thresh                14
jobtype               opt
scf_guess             read
scf_algorithm         diis
max_scf_cycles        100
geom_opt_tol_gradient 600
geom_opt_tol_displacement 2400
geom_opt_tol_energy   200
geom_opt_max_cycles   100
$end

--------------------------------------------------------------

    2    -286.7157761222      1.33E-09 Convergence criterion met
 Total energy in the final basis set = -286.71577612
   17    -286.7574040054      4.50E-09 Convergence criterion met
 Total energy in the final basis set = -286.75740401
   17    -286.7889980948      4.96E-09 Convergence criterion met
 Total energy in the final basis set = -286.78899809
   17    -286.8103184649      3.18E-09 Convergence criterion met
 Total energy in the final basis set = -286.81031846
   16    -286.8234886508      5.00E-09 Convergence criterion met
 Total energy in the final basis set = -286.82348865
   14    -286.8308169607      9.68E-09 Convergence criterion met
 Total energy in the final basis set = -286.83081696
   14    -286.8348247887      5.34E-09 Convergence criterion met
 Total energy in the final basis set = -286.83482479
   12    -286.8355571031      7.35E-09 Convergence criterion met
   12    -286.8357443414      8.48E-09 Convergence criterion met
 Total energy in the final basis set = -286.83574434
   12    -286.8364750842      7.07E-09 Convergence criterion met
 Total energy in the final basis set = -286.83647508
   11    -286.8364320560      7.65E-09 Convergence criterion met
 Total energy in the final basis set = -286.83643206
   11    -286.8364997532      5.49E-09 Convergence criterion met
 Total energy in the final basis set = -286.83649975
   10    -286.8365024097      6.49E-09 Convergence criterion met
 Total energy in the final basis set = -286.83650241
   10    -286.8365048754      3.47E-09 Convergence criterion met
 Total energy in the final basis set = -286.83650488

             Standard Nuclear Orientation (Angstroms)
    I     Atom           X                Y                Z
 ----------------------------------------------------------------
    1      C       1.4106190744     0.3581192261    -1.7619701718
    2      C       0.7597343208    -0.9710521699    -1.5699139011
    3      C      -0.5455159025    -0.8842487578    -2.2918773479
    4      C      -1.1533790798     0.4016715151    -0.7159633201
    5      C      -0.7373859678     0.6749490288    -2.1671695163
    6      N       0.6144264441     1.2874404108    -2.1384854900
    7      H       2.4649131954     0.5529992541    -1.5682938120
    8      H       1.3220223151    -1.8991694676    -1.5339386954
    9      H      -0.9464593337    -1.5759187303    -3.0271559032
   10      H      -2.1182294396     0.6491162094    -0.2879911326
   11      H      -1.4235465333     1.2054346447    -2.8270213814
   12      C      -0.5797160853    -0.9570264666    -0.7573661709
   13      H      -0.8069969439    -1.8014249450    -0.1149238406
 ----------------------------------------------------------------

   10    -286.8365048883      3.69E-09 Convergence criterion met
 Total energy in the final basis set = -286.83650489
 Final energy is   -286.836504888300
 **  OPTIMIZATION CONVERGED  **

                    Orbital Energies (a.u.)
 --------------------------------------------------------------

 Alpha MOs
 -- Occupied --
-14.317 -10.220 -10.220 -10.215 -10.212 -10.211 -10.194  -0.964
 -0.858  -0.746  -0.657  -0.608  -0.574  -0.540  -0.512  -0.463
 -0.429  -0.412  -0.388  -0.366  -0.329  -0.315  -0.266  -0.256
 -0.174

 Beta MOs
 -- Occupied --
-14.317 -10.221 -10.220 -10.216 -10.211 -10.210 -10.181  -0.961
 -0.854  -0.737  -0.646  -0.602  -0.571  -0.538  -0.501  -0.461
 -0.425  -0.406  -0.384  -0.362  -0.317  -0.303  -0.263  -0.254

          Ground-State Mulliken Net Atomic Charges

     Atom                 Charge (a.u.)    Spin (a.u.)
  --------------------------------------------------------
      1 C                     0.096380       0.006702
      2 C                    -0.191995       0.036606
      3 C                    -0.107289       0.107890
      4 C                    -0.071323       0.952256
      5 C                    -0.099677      -0.043400
      6 N                    -0.337253       0.012610
      7 H                     0.143773       0.003972
      8 H                     0.148661       0.001441
      9 H                     0.149554       0.008514
     10 H                     0.139532      -0.039516
     11 H                     0.141923       0.005426
     12 C                    -0.161920      -0.052871
     13 H                     0.149635       0.000370
  --------------------------------------------------------
  Sum of atomic charges =     0.000000

                    Cartesian Multipole Moments
 -----------------------------------------------------------------
    Charge (ESU x 10^10)
                 0.0000
    Dipole Moment (Debye)
         X      -0.6275      Y      -2.7636      Z       0.1054
       Tot       2.8359
    Quadrupole Moments (Debye-Ang)
        XX     -36.6138     XY      -2.0509     YY     -42.2828
        XZ       1.9642     YZ       4.8304     ZZ     -41.2841

 Total job time:  527.67s(wall), 718.21s(cpu)
        *  Thank you very much for using Q-Chem.  Have a nice day.  *
