 Q-Chem 5.0, Q-Chem, Inc., Pleasanton, CA (2017)
 Q-Chem 5.0.2 for Intel X86 EM64T Linux

User input:
--------------------------------------------------------------
$molecule
0 2
C        1.6987178982    0.3439914629   -2.4968432687
C        1.3985488518   -1.0771366503   -2.3993733895
C       -0.2462008801   -1.3163085569   -2.4570825950
C       -1.2727024539    0.3886134487   -1.1175432229
C       -0.7382454816    1.2324696010   -2.2976225398
N        0.7497675172    1.2723074862   -2.7751319201
H        2.5639275700    0.9632764448   -2.7376736303
H        2.0962060603   -1.8907336524   -2.1943735568
H       -0.3107192097   -1.1928515611   -3.6152681802
H       -0.9123151790    0.8119218090   -0.1634438137
H       -1.5711718988    1.6512583597   -2.8228716930
C       -1.7258633385   -0.9843896836   -1.1815281029
H       -2.0349036179   -1.8126379855   -0.5028901767
$end

$rem
method                b3lyp
basis                 6-31g(d)
unrestricted          true
symmetry              off
sym_ignore            true
incdft                false
incfock               0
scf_convergence       8
thresh                14
jobtype               opt
scf_guess             read
scf_algorithm         diis
max_scf_cycles        100
geom_opt_tol_gradient 600
geom_opt_tol_displacement 2400
geom_opt_tol_energy   200
geom_opt_max_cycles   100
$end

--------------------------------------------------------------

    2    -286.6050347009      2.40E-09 Convergence criterion met
 Total energy in the final basis set = -286.60503470
   21    -286.6696999362      6.80E-09 Convergence criterion met
 Total energy in the final basis set = -286.66969994
   20    -286.7267328039      9.98E-09 Convergence criterion met
 Total energy in the final basis set = -286.72673280
   19    -286.7699066942      5.06E-09 Convergence criterion met
 Total energy in the final basis set = -286.76990669
   17    -286.7998354944      7.38E-09 Convergence criterion met
 Total energy in the final basis set = -286.79983549
   16    -286.8199200278      5.12E-09 Convergence criterion met
 Total energy in the final basis set = -286.81992003
   15    -286.8332250146      9.75E-09 Convergence criterion met
 Total energy in the final basis set = -286.83322501
   15    -286.8433595581      2.74E-09 Convergence criterion met
   15    -286.9241191555      5.35E-09 Convergence criterion met
 Total energy in the final basis set = -286.92411916
   15    -286.9241893702      3.24E-09 Convergence criterion met
 Total energy in the final basis set = -286.92418937
   14    -286.9242491760      6.40E-09 Convergence criterion met
 Total energy in the final basis set = -286.92424918
   15    -286.9243041917      3.31E-09 Convergence criterion met
 Total energy in the final basis set = -286.92430419
   14    -286.9243233105      9.36E-09 Convergence criterion met
 Total energy in the final basis set = -286.92432331
   14    -286.9243294795      3.80E-09 Convergence criterion met
 Total energy in the final basis set = -286.92432948

             Standard Nuclear Orientation (Angstroms)
    I     Atom           X                Y                Z
 ----------------------------------------------------------------
    1      C       1.4501299640     0.3802642315    -2.7161988127
    2      C       1.1593584834    -0.9679629648    -2.6061511988
    3      C      -0.0335972436    -1.5810396233    -2.0812306459
    4      C      -1.3220428910     0.4793839363    -1.4577330809
    5      C      -0.4618526582     1.4926726342    -1.8319809211
    6      N       0.7718309642     1.5041503124    -2.3932157741
    7      H       2.4255244328     0.6037995260    -3.1543524360
    8      H       1.9302284326    -1.6454281505    -2.9655494675
    9      H      -0.0525050479    -2.6690269413    -2.0942966624
   10      H      -2.2642475538     0.8004033137    -1.0198770835
   11      H      -0.8342060631     2.5023797307    -1.6463029137
   12      C      -1.1275550822    -0.9438508490    -1.5756156100
   13      H      -1.9460198992    -1.5659646334    -1.2191414829
 ----------------------------------------------------------------

   13    -286.9243321478      3.76E-09 Convergence criterion met
 Total energy in the final basis set = -286.92433215
 Final energy is   -286.924332147764
 **  OPTIMIZATION CONVERGED  **

                    Orbital Energies (a.u.)
 --------------------------------------------------------------

 Alpha MOs
 -- Occupied --
-14.322 -10.232 -10.232 -10.212 -10.211 -10.201 -10.200  -0.922
 -0.818  -0.784  -0.693  -0.667  -0.551  -0.537  -0.518  -0.449
 -0.439  -0.414  -0.394  -0.386  -0.349  -0.322  -0.299  -0.251
 -0.162

 Beta MOs
 -- Occupied --
-14.314 -10.234 -10.233 -10.211 -10.210 -10.196 -10.196  -0.911
 -0.809  -0.777  -0.681  -0.665  -0.546  -0.534  -0.514  -0.447
 -0.438  -0.411  -0.383  -0.373  -0.348  -0.295  -0.276  -0.241

          Ground-State Mulliken Net Atomic Charges

     Atom                 Charge (a.u.)    Spin (a.u.)
  --------------------------------------------------------
      1 C                     0.036536      -0.117187
      2 C                    -0.132620       0.354965
      3 C                    -0.110374       0.084056
      4 C                    -0.130334       0.338785
      5 C                     0.034409      -0.107831
      6 N                    -0.423280       0.386814
      7 H                     0.142596       0.003629
      8 H                     0.134284      -0.018706
      9 H                     0.142075      -0.006173
     10 H                     0.134500      -0.017952
     11 H                     0.142636       0.003169
     12 C                    -0.112259       0.103537
     13 H                     0.141830      -0.007106
  --------------------------------------------------------
  Sum of atomic charges =    -0.000000

                    Cartesian Multipole Moments
 -----------------------------------------------------------------
    Charge (ESU x 10^10)
                -0.0000
    Dipole Moment (Debye)
         X      -0.9663      Y      -1.9836      Z       0.4070
       Tot       2.2437
    Quadrupole Moments (Debye-Ang)
        XX     -37.2811     XY      -2.8454     YY     -40.1018
        XZ      -0.8011     YZ       5.4666     ZZ     -43.7548

 Total job time:  1424.37s(wall), 1676.92s(cpu)
        *  Thank you very much for using Q-Chem.  Have a nice day.  *
