 Q-Chem 5.0, Q-Chem, Inc., Pleasanton, CA (2017)
 Q-Chem 5.0.2 for Intel X86 EM64T Linux

User input:
--------------------------------------------------------------
$molecule
0 2
C        1.5758624978    0.4527193644   -0.0524852427
C        0.8243225195   -0.8156766714    0.1049358752
C       -0.5142214665   -0.9607802064   -0.5986270279
C       -1.1207515238    0.3151218051   -0.0314326887
C       -0.3743500131    1.5783697681   -0.2436122342
N        0.9579280578    1.6192493267   -0.2360078737
H        2.6620976006    0.4571557914    0.0011031635
H        1.4104144824   -1.7254489639    0.2208635463
H       -0.9157871709   -1.7293673214   -1.2431378866
H       -2.2071341972    0.3783825191   -0.0254864027
H       -0.9090022993    2.5063868469   -0.4328187474
C       -0.5020998447   -0.7568194346    0.8492679420
H       -0.8872786424   -1.3192928234    1.6874375763
$end

$rem
method                b3lyp
basis                 6-31+g(d,p)
unrestricted          true
symmetry              off
sym_ignore            true
incdft                false
incfock               0
scf_convergence       6
thresh                14
jobtype               sp
scf_guess             read
scf_algorithm         diis
max_scf_cycles        100
stability_analysis    true
max_cis_cycles        100
cis_n_roots           4
$end

--------------------------------------------------------------

             Standard Nuclear Orientation (Angstroms)
    I     Atom           X                Y                Z
 ----------------------------------------------------------------
    1      C       1.5758624978     0.4527193644    -0.0524852427
    2      C       0.8243225195    -0.8156766714     0.1049358752
    3      C      -0.5142214665    -0.9607802064    -0.5986270279
    4      C      -1.1207515238     0.3151218051    -0.0314326887
    5      C      -0.3743500131     1.5783697681    -0.2436122342
    6      N       0.9579280578     1.6192493267    -0.2360078737
    7      H       2.6620976006     0.4571557914     0.0011031635
    8      H       1.4104144824    -1.7254489639     0.2208635463
    9      H      -0.9157871709    -1.7293673214    -1.2431378866
   10      H      -2.2071341972     0.3783825191    -0.0254864027
   11      H      -0.9090022993     2.5063868469    -0.4328187474
   12      C      -0.5020998447    -0.7568194346     0.8492679420
   13      H      -0.8872786424    -1.3192928234     1.6874375763
 ----------------------------------------------------------------

    2    -286.8792927324      1.01E-09 Convergence criterion met
 Total energy in the final basis set = -286.87929273

         TDDFT/TDA Excitation Energies
 ---------------------------------------------------

 Excited state   1: excitation energy (eV) =    2.8201
 Total energy for state  1:                  -286.77565733 au
    <S**2>     :  0.7805
    Trans. Mom.: -0.0010 X  -0.0016 Y   0.0002 Z
    Strength   :     0.0000002503
    D( 24) --> S(  1) amplitude =  0.9970 beta

 Excited state   2: excitation energy (eV) =    3.5328
 Total energy for state  2:                  -286.74946418 au
    <S**2>     :  0.7681
    Trans. Mom.: -0.3907 X   0.2276 Y  -0.0223 Z
    Strength   :     0.0177365803
    S(  1) --> V(  1) amplitude =  0.9206 alpha
    S(  1) --> V(  5) amplitude =  0.1675 alpha
    D( 23) --> S(  1) amplitude =  0.3015 beta

 Excited state   3: excitation energy (eV) =    4.1723
 Total energy for state  3:                  -286.72596238 au
    <S**2>     :  0.7907
    Trans. Mom.:  0.0045 X   0.0074 Y  -0.0018 Z
    Strength   :     0.0000079609
    S(  1) --> V(  2) amplitude =  0.9916 alpha

 Excited state   4: excitation energy (eV) =    4.5464
 Total energy for state  4:                  -286.71221459 au
    <S**2>     :  2.4841
    Trans. Mom.:  0.0252 X  -0.0249 Y  -0.0690 Z
    Strength   :     0.0006706809
    D( 24) --> V(  1) amplitude = -0.8459 alpha
    D( 24) --> V(  5) amplitude = -0.2263 alpha
    D( 24) --> V(  2) amplitude = -0.3609 beta
    D( 24) --> V(  5) amplitude =  0.1726 beta

 ---------------------------------------------------

                    Orbital Energies (a.u.)
 --------------------------------------------------------------

 Alpha MOs
 -- Occupied --
-14.331 -10.226 -10.226 -10.226 -10.225 -10.225 -10.225  -0.970
 -0.907  -0.760  -0.652  -0.645  -0.597  -0.553  -0.490  -0.482
 -0.473  -0.417  -0.404  -0.373  -0.348  -0.310  -0.308  -0.239
 -0.184

 Beta MOs
 -- Occupied --
-14.334 -10.226 -10.226 -10.223 -10.223 -10.218 -10.218  -0.966
 -0.904  -0.748  -0.641  -0.640  -0.592  -0.550  -0.483  -0.476
 -0.472  -0.413  -0.387  -0.370  -0.333  -0.309  -0.305  -0.239

          Ground-State Mulliken Net Atomic Charges

     Atom                 Charge (a.u.)    Spin (a.u.)
  --------------------------------------------------------
      1 C                    -0.102060       0.605484
      2 C                    -0.172445      -0.050635
      3 C                    -0.014772       0.081371
      4 C                    -0.172414      -0.050476
      5 C                    -0.100840       0.605713
      6 N                    -0.216180      -0.201780
      7 H                     0.124255      -0.032271
      8 H                     0.130420       0.000800
      9 H                     0.141368      -0.003999
     10 H                     0.130365       0.000797
     11 H                     0.124263      -0.032292
     12 C                    -0.013397       0.081282
     13 H                     0.141436      -0.003994
  --------------------------------------------------------
  Sum of atomic charges =     0.000000

                    Cartesian Multipole Moments
 -----------------------------------------------------------------
    Charge (ESU x 10^10)
                 0.0000
    Dipole Moment (Debye)
         X      -1.6446      Y      -2.7791      Z       0.4043
       Tot       3.2545
    Quadrupole Moments (Debye-Ang)
        XX     -38.7518     XY      -4.1430     YY     -43.4744
        XZ       0.7281     YZ       0.0561     ZZ     -42.6084

 Total job time:  210.61s(wall), 198.62s(cpu)
        *  Thank you very much for using Q-Chem.  Have a nice day.  *
