 Q-Chem 5.0, Q-Chem, Inc., Pleasanton, CA (2017)
 Q-Chem 5.0.2 for Intel X86 EM64T Linux

User input:
--------------------------------------------------------------
$molecule
0 2
C        1.3652822579    0.3834213914    0.2014157343
C        0.8003240187   -0.9247048838   -0.2686708013
C       -0.5530188979   -0.8607943198   -0.8904791226
C       -1.0699545957    0.3334589931   -0.0203286709
C       -0.3947767858    1.5993757263   -0.3760626621
N        0.9009006467    1.6053830787   -0.2026901008
H        2.2793846737    0.3335791436    0.7846045511
H        1.4069442906   -1.8234083257   -0.2535264597
H       -1.1227664222   -1.7891339741   -0.9185177125
H       -2.1353459602    0.3579261561    0.1981097026
H       -0.9119552406    2.4595848906   -0.7897892887
C       -0.1420278808   -0.5344485533    0.8375177073
H       -0.4481731133   -1.1602914440    1.6733197437
$end

$rem
method                b3lyp
basis                 6-31+g(d,p)
unrestricted          true
symmetry              off
sym_ignore            true
incdft                false
incfock               0
scf_convergence       8
thresh                14
jobtype               rpath
scf_guess             core
scf_guess_mix         5
scf_algorithm         diis
max_scf_cycles        100
rpath_direction       1
rpath_tol_displacement 1000
rpath_max_cycles      50
geom_opt_max_cycles   300
geom_opt_hessian      read
$end

--------------------------------------------------------------

   22    -286.8141395731      7.06E-09 Convergence criterion met
 Total energy in the final basis set = -286.81413957
   23    -286.8174853103      5.38E-09 Convergence criterion met
 Total energy in the final basis set = -286.81748531
   23    -286.8174703096      5.58E-09 Convergence criterion met
 Total energy in the final basis set = -286.81747031
   23    -286.8174970754      5.45E-09 Convergence criterion met
 Total energy in the final basis set = -286.81749708
   22    -286.8253324033      6.05E-09 Convergence criterion met
 Total energy in the final basis set = -286.82533240
   22    -286.8253248408      6.30E-09 Convergence criterion met
 Total energy in the final basis set = -286.82532484
   22    -286.8253557982      5.60E-09 Convergence criterion met
 Total energy in the final basis set = -286.82535580
   21    -286.8342919234      9.79E-09 Convergence criterion met
 Total energy in the final basis set = -286.85618675
   21    -286.8569081527      3.86E-09 Convergence criterion met
 Total energy in the final basis set = -286.85690815
   21    -286.8568995888      3.78E-09 Convergence criterion met
 Total energy in the final basis set = -286.85689959
   21    -286.8569117766      3.94E-09 Convergence criterion met
 Total energy in the final basis set = -286.85691178
   20    -286.8543868051      8.31E-09 Convergence criterion met
 Total energy in the final basis set = -286.85438681
   21    -286.8569141815      3.77E-09 Convergence criterion met
 Total energy in the final basis set = -286.85691418
   21    -286.8569138599      3.79E-09 Convergence criterion met
 Total energy in the final basis set = -286.85691386
   21    -286.8569152552      3.27E-09 Convergence criterion met
 Total energy in the final basis set = -286.85691526

                    Orbital Energies (a.u.)
 --------------------------------------------------------------

 Alpha MOs
 -- Occupied --
-14.334 -10.233 -10.231 -10.223 -10.221 -10.220 -10.211  -0.980
 -0.867  -0.760  -0.673  -0.615  -0.583  -0.549  -0.518  -0.464
 -0.450  -0.420  -0.410  -0.369  -0.344  -0.317  -0.282  -0.271
 -0.181

 Beta MOs
 -- Occupied --
-14.334 -10.233 -10.231 -10.221 -10.221 -10.220 -10.199  -0.976
 -0.862  -0.753  -0.661  -0.611  -0.579  -0.544  -0.511  -0.458
 -0.446  -0.415  -0.406  -0.360  -0.340  -0.305  -0.275  -0.266

          Ground-State Mulliken Net Atomic Charges

     Atom                 Charge (a.u.)    Spin (a.u.)
  --------------------------------------------------------
      1 C                    -0.255054       0.012328
      2 C                    -0.108287      -0.098569
      3 C                    -0.109430       0.998942
      4 C                    -0.111929      -0.084861
      5 C                    -0.010890      -0.002801
      6 N                    -0.177310       0.026589
      7 H                     0.144918       0.003244
      8 H                     0.140182       0.000287
      9 H                     0.136762      -0.039510
     10 H                     0.131423       0.008057
     11 H                     0.131974       0.001600
     12 C                    -0.047575       0.166867
     13 H                     0.135216       0.007826
  --------------------------------------------------------
  Sum of atomic charges =    -0.000000

                    Cartesian Multipole Moments
 -----------------------------------------------------------------
    Charge (ESU x 10^10)
                -0.0000
    Dipole Moment (Debye)
         X      -1.5429      Y      -2.1055      Z       1.3122
       Tot       2.9215
    Quadrupole Moments (Debye-Ang)
        XX     -39.3919     XY      -4.8504     YY     -43.4735
        XZ       2.0639     YZ       0.0499     ZZ     -42.3882

             Standard Nuclear Orientation (Angstroms)
    I     Atom           X                Y                Z
 ----------------------------------------------------------------
    1      C       1.3652822579     0.3834213914     0.2014157343
    2      C       0.8003240187    -0.9247048838    -0.2686708013
    3      C      -0.5530188979    -0.8607943198    -0.8904791226
    4      C      -1.0699545957     0.3334589931    -0.0203286709
    5      C      -0.3947767858     1.5993757263    -0.3760626621
    6      N       0.9009006467     1.6053830787    -0.2026901008
    7      H       2.2793846737     0.3335791436     0.7846045511
    8      H       1.4069442906    -1.8234083257    -0.2535264597
    9      H      -1.1227664222    -1.7891339741    -0.9185177125
   10      H      -2.1353459602     0.3579261561     0.1981097026
   11      H      -0.9119552406     2.4595848906    -0.7897892887
   12      C      -0.1420278808    -0.5344485533     0.8375177073
   13      H      -0.4481731133    -1.1602914440     1.6733197437
 ----------------------------------------------------------------

 Total job time:  9802.83s(wall), 34536.75s(cpu)
        *  Thank you very much for using Q-Chem.  Have a nice day.  *
