 Q-Chem 5.0, Q-Chem, Inc., Pleasanton, CA (2017)
 Q-Chem 5.0.2 for Intel X86 EM64T Linux

User input:
--------------------------------------------------------------
$molecule
0 2
C        1.5751877236    0.4456964295   -0.0859246270
C        0.8224775221   -0.8153030354    0.1174561384
C       -0.5187162062   -0.9686041869   -0.5830774992
C       -1.1193980815    0.3160409781   -0.0361673903
C       -0.3701428071    1.5789271588   -0.2388473708
N        0.9609130039    1.6141495743   -0.2598457188
H        2.6634259738    0.4386562133   -0.0979529891
H        1.4063163589   -1.7246875642    0.2497027670
H       -0.9207244973   -1.7424615602   -1.2221101752
H       -2.2063341362    0.3789713473   -0.0331540677
H       -0.9040697882    2.5169144806   -0.3782928638
C       -0.5024268939   -0.7468623541    0.8584352223
H       -0.8865081718   -1.2914374808    1.7097785743
$end

$rem
method                b3lyp
basis                 6-31g(d)
unrestricted          true
symmetry              off
sym_ignore            true
incdft                false
incfock               0
scf_convergence       8
thresh                14
jobtype               opt
scf_guess             core
scf_guess_mix         5
scf_algorithm         diis
max_scf_cycles        100
geom_opt_max_cycles   300
$end

--------------------------------------------------------------

   19    -286.8584653799      3.63E-09 Convergence criterion met
 Total energy in the final basis set = -286.85846538
   13    -286.8584664295      8.96E-09 Convergence criterion met
 Total energy in the final basis set = -286.85846643

             Standard Nuclear Orientation (Angstroms)
    I     Atom           X                Y                Z
 ----------------------------------------------------------------
    1      C       1.5754785653     0.4456378027    -0.0864065337
    2      C       0.8223283915    -0.8151126325     0.1169043780
    3      C      -0.5184346897    -0.9679999234    -0.5827410394
    4      C      -1.1197088540     0.3163730023    -0.0359153085
    5      C      -0.3701531584     1.5790024873    -0.2391948709
    6      N       0.9609384316     1.6142423936    -0.2595241318
    7      H       2.6636733083     0.4391202389    -0.0978608632
    8      H       1.4056143291    -1.7249866416     0.2489551345
    9      H      -0.9199163278    -1.7438934080    -1.2196390896
   10      H      -2.2065761233     0.3796194190    -0.0333785087
   11      H      -0.9038662590     2.5172603176    -0.3783017375
   12      C      -0.5020008311    -0.7459385163     0.8590849691
   13      H      -0.8873767824    -1.2933245392     1.7080176017
 ----------------------------------------------------------------

   13    -286.8584671167      8.97E-09 Convergence criterion met
 Total energy in the final basis set = -286.85846712
 Final energy is   -286.858467116673
 **  OPTIMIZATION CONVERGED  **

                    Orbital Energies (a.u.)
 --------------------------------------------------------------

 Alpha MOs
 -- Occupied --
-14.317 -10.216 -10.216 -10.215 -10.215 -10.215 -10.215  -0.960
 -0.896  -0.750  -0.643  -0.635  -0.589  -0.545  -0.482  -0.471
 -0.465  -0.408  -0.395  -0.365  -0.338  -0.299  -0.298  -0.227
 -0.173

 Beta MOs
 -- Occupied --
-14.320 -10.216 -10.216 -10.213 -10.213 -10.207 -10.207  -0.955
 -0.894  -0.738  -0.631  -0.630  -0.584  -0.542  -0.476  -0.466
 -0.464  -0.405  -0.377  -0.362  -0.323  -0.298  -0.294  -0.227

          Ground-State Mulliken Net Atomic Charges

     Atom                 Charge (a.u.)    Spin (a.u.)
  --------------------------------------------------------
      1 C                     0.076512       0.597078
      2 C                    -0.221053      -0.053314
      3 C                    -0.090109       0.094739
      4 C                    -0.220919      -0.053371
      5 C                     0.076556       0.597264
      6 N                    -0.395296      -0.205394
      7 H                     0.135604      -0.032050
      8 H                     0.142094       0.000517
      9 H                     0.154169      -0.004294
     10 H                     0.142133       0.000516
     11 H                     0.135568      -0.032053
     12 C                    -0.089480       0.094651
     13 H                     0.154221      -0.004287
  --------------------------------------------------------
  Sum of atomic charges =    -0.000000

                    Cartesian Multipole Moments
 -----------------------------------------------------------------
    Charge (ESU x 10^10)
                 0.0000
    Dipole Moment (Debye)
         X      -1.5116      Y      -2.5400      Z       0.4073
       Tot       2.9837
    Quadrupole Moments (Debye-Ang)
        XX     -37.7941     XY      -3.6412     YY     -41.8664
        XZ       0.5208     YZ       0.1347     ZZ     -41.2933

 Total job time:  54.31s(wall), 141.89s(cpu)
        *  Thank you very much for using Q-Chem.  Have a nice day.  *
