 Q-Chem 5.0, Q-Chem, Inc., Pleasanton, CA (2017)
 Q-Chem 5.0.2 for Intel X86 EM64T Linux

User input:
--------------------------------------------------------------
$molecule
0 2
C        1.3699569263    0.3876070074    0.1957650425
C        0.7962359039   -0.9232183903   -0.2634523813
C       -0.5526305225   -0.8559927556   -0.9020065705
C       -1.0690194577    0.3313604876   -0.0171178789
C       -0.3927939344    1.5972679854   -0.3723918128
N        0.9020420528    1.6063969334   -0.2031628288
H        2.2851058846    0.3384985533    0.7785630007
H        1.4040661259   -1.8219788893   -0.2466098113
H       -1.1201191894   -1.7868356441   -0.9121125867
H       -2.1353058983    0.3571356852    0.1999345805
H       -0.9107637263    2.4558016049   -0.7908191205
C       -0.1444289084   -0.5379283927    0.8388420798
H       -0.4575282654   -1.1681663062    1.6694709078
$end

$rem
method                b3lyp
basis                 6-31+g(d,p)
unrestricted          true
symmetry              off
sym_ignore            true
incdft                false
incfock               0
scf_convergence       8
thresh                14
jobtype               freq
scf_guess             read
scf_algorithm         diis
max_scf_cycles        100
$end

--------------------------------------------------------------

             Standard Nuclear Orientation (Angstroms)
    I     Atom           X                Y                Z
 ----------------------------------------------------------------
    1      C       1.3699569263     0.3876070074     0.1957650425
    2      C       0.7962359039    -0.9232183903    -0.2634523813
    3      C      -0.5526305225    -0.8559927556    -0.9020065705
    4      C      -1.0690194577     0.3313604876    -0.0171178789
    5      C      -0.3927939344     1.5972679854    -0.3723918128
    6      N       0.9020420528     1.6063969334    -0.2031628288
    7      H       2.2851058846     0.3384985533     0.7785630007
    8      H       1.4040661259    -1.8219788893    -0.2466098113
    9      H      -1.1201191894    -1.7868356441    -0.9121125867
   10      H      -2.1353058983     0.3571356852     0.1999345805
   11      H      -0.9107637263     2.4558016049    -0.7908191205
   12      C      -0.1444289084    -0.5379283927     0.8388420798
   13      H      -0.4575282654    -1.1681663062     1.6694709078
 ----------------------------------------------------------------

    2    -286.8140898722      1.62E-09 Convergence criterion met
 Total energy in the final basis set = -286.81408987

                    Orbital Energies (a.u.)
 --------------------------------------------------------------

 Alpha MOs
 -- Occupied --
-14.332 -10.251 -10.246 -10.232 -10.230 -10.228 -10.220  -0.979
 -0.888  -0.767  -0.655  -0.637  -0.613  -0.556  -0.505  -0.461
 -0.449  -0.433  -0.422  -0.381  -0.374  -0.321  -0.281  -0.256
 -0.139

 Beta MOs
 -- Occupied --
-14.332 -10.252 -10.243 -10.228 -10.227 -10.224 -10.216  -0.975
 -0.884  -0.759  -0.647  -0.627  -0.610  -0.553  -0.500  -0.458
 -0.443  -0.429  -0.412  -0.374  -0.366  -0.303  -0.275  -0.246

          Ground-State Mulliken Net Atomic Charges

     Atom                 Charge (a.u.)    Spin (a.u.)
  --------------------------------------------------------
      1 C                    -0.241099       0.258374
      2 C                    -0.064723       0.038199
      3 C                    -0.146058       0.611489
      4 C                    -0.270064      -0.045383
      5 C                     0.021302       0.245655
      6 N                    -0.197065      -0.011835
      7 H                     0.142767      -0.009864
      8 H                     0.150426      -0.007066
      9 H                     0.152502      -0.003487
     10 H                     0.139790      -0.002818
     11 H                     0.128439      -0.013607
     12 C                     0.035662      -0.075383
     13 H                     0.148122       0.015725
  --------------------------------------------------------
  Sum of atomic charges =    -0.000000

                    Cartesian Multipole Moments
 -----------------------------------------------------------------
    Charge (ESU x 10^10)
                -0.0000
    Dipole Moment (Debye)
         X      -1.3230      Y      -2.8414      Z       1.3753
       Tot       3.4228
    Quadrupole Moments (Debye-Ang)
        XX     -39.3207     XY      -4.6813     YY     -43.3210
        XZ       0.9063     YZ      -1.2903     ZZ     -44.3874

 Frequency:      -918.02                 170.47                 440.62
 Force Cnst:      2.6527                 0.0914                 0.3144
 Red. Mass:       5.3424                 5.3408                 2.7488
 IR Intens:      219.857                 28.885                  1.060
 Frequency:       467.24                 648.20                 670.75
 Force Cnst:      0.7396                 1.5005                 0.7654
 Red. Mass:       5.7498                 6.0613                 2.8876
 IR Intens:        6.147                 11.348                 38.185
 Frequency:       694.55                 761.67                 792.00
 Force Cnst:      0.9028                 0.5204                 0.5551
 Red. Mass:       3.1764                 1.5225                 1.5019
 IR Intens:        6.999                 23.784                 41.643
 Frequency:       820.53                 857.89                 879.65
 Force Cnst:      0.6482                 0.6355                 0.9278
 Red. Mass:       1.6341                 1.4656                 2.0351
 IR Intens:        4.247                  2.999                 64.626
 Frequency:       916.65                 943.18                 986.39
 Force Cnst:      0.7828                 0.8595                 1.3205
 Red. Mass:       1.5813                 1.6399                 2.3035
 IR Intens:        2.497                 14.196                  1.997
 Frequency:      1020.77                1053.47                1070.69
 Force Cnst:      1.1668                 1.2205                 1.0424
 Red. Mass:       1.9006                 1.8665                 1.5433
 IR Intens:        1.755                  5.508                  3.142
 Frequency:      1156.93                1175.02                1197.55
 Force Cnst:      1.8987                 1.0961                 1.3860
 Red. Mass:       2.4077                 1.3474                 1.6403
 IR Intens:       11.033                  7.152                 12.126
 Frequency:      1232.12                1319.76                1335.30
 Force Cnst:      1.6722                 1.4348                 2.0738
 Red. Mass:       1.8695                 1.3981                 1.9741
 IR Intens:        8.025                  7.221                 13.247
 Frequency:      1365.68                1400.60                1537.03
 Force Cnst:      2.1843                 2.6358                 6.1535
 Red. Mass:       1.9878                 2.2806                 4.4209
 IR Intens:       11.072                  3.821                 67.013
 Frequency:      3138.30                3155.50                3165.93
 Force Cnst:      6.3128                 6.3939                 6.4477
 Red. Mass:       1.0879                 1.0899                 1.0918
 IR Intens:       13.989                  7.384                 17.114
 Frequency:      3192.80                3197.86                3204.88
 Force Cnst:      6.5360                 6.5831                 6.6262
 Red. Mass:       1.0882                 1.0926                 1.0949
 IR Intens:        7.536                 14.573                  6.127

 STANDARD THERMODYNAMIC QUANTITIES AT   298.15 K  AND     1.00 ATM

   This Molecule has  1 Imaginary Frequencies
   Zero point vibrational energy:       62.858 kcal/mol

   Atom    1 Element C  Has Mass   12.00000
   Atom    2 Element C  Has Mass   12.00000
   Atom    3 Element C  Has Mass   12.00000
   Atom    4 Element C  Has Mass   12.00000
   Atom    5 Element C  Has Mass   12.00000
   Atom    6 Element N  Has Mass   14.00307
   Atom    7 Element H  Has Mass    1.00783
   Atom    8 Element H  Has Mass    1.00783
   Atom    9 Element H  Has Mass    1.00783
   Atom   10 Element H  Has Mass    1.00783
   Atom   11 Element H  Has Mass    1.00783
   Atom   12 Element C  Has Mass   12.00000
   Atom   13 Element H  Has Mass    1.00783
   Molecular Mass:    92.050050 amu
   Principal axes and moments of inertia in amu*Bohr^2:
                             1           2           3
    Eigenvalues --      348.56281   458.41861   632.36366
          X               0.24240     0.95618    -0.16420
          Y               0.96993    -0.23502     0.06326
          Z              -0.02190     0.17460     0.98440
   Rotational Symmetry Number is   1
   The Molecule is an Asymmetric Top
   Translational Enthalpy:        0.889 kcal/mol
   Rotational Enthalpy:           0.889 kcal/mol
   Vibrational Enthalpy:         64.244 kcal/mol
   gas constant (RT):             0.592 kcal/mol
   Translational Entropy:        39.471  cal/mol.K
   Rotational Entropy:           26.116  cal/mol.K
   Vibrational Entropy:           6.841  cal/mol.K

   Total Enthalpy:               66.614 kcal/mol
   Total Entropy:                72.428  cal/mol.K

 Total job time:  575.73s(wall), 565.59s(cpu)
        *  Thank you very much for using Q-Chem.  Have a nice day.  *
