 Q-Chem 5.0, Q-Chem, Inc., Pleasanton, CA (2017)
 Q-Chem 5.0.2 for Intel X86 EM64T Linux

User input:
--------------------------------------------------------------
$molecule
0 2
C        1.3781787822    0.3665340866    0.2096456921
C        0.7440746719   -0.9496988933   -0.1871485365
C       -0.5388534304   -0.8253852666   -0.9275363321
C       -1.0715597868    0.2839708887    0.0302503774
C       -0.4076348478    1.5583758913   -0.3702666285
N        0.8781593919    1.5705533774   -0.2404746576
H        2.3484839628    0.3690791900    0.6963811538
H        1.3646994944   -1.8424852020   -0.1544886028
H       -1.1184544910   -1.6721771973   -1.2692508370
H       -2.1390566551    0.3319241469    0.2475261672
H       -0.9324013946    2.4017897524   -0.8140687906
C       -0.1168865512   -0.5130339190    0.9431450424
H       -0.4139321551   -1.0994989759    1.8111885729
$end

$rem
method                b3lyp
basis                 6-31g(d)
unrestricted          true
symmetry              off
sym_ignore            true
incdft                false
incfock               0
scf_convergence       8
thresh                14
jobtype               freq
scf_guess             read
scf_algorithm         diis
max_scf_cycles        100
$end

--------------------------------------------------------------

             Standard Nuclear Orientation (Angstroms)
    I     Atom           X                Y                Z
 ----------------------------------------------------------------
    1      C       1.3781787822     0.3665340866     0.2096456921
    2      C       0.7440746719    -0.9496988933    -0.1871485365
    3      C      -0.5388534304    -0.8253852666    -0.9275363321
    4      C      -1.0715597868     0.2839708887     0.0302503774
    5      C      -0.4076348478     1.5583758913    -0.3702666285
    6      N       0.8781593919     1.5705533774    -0.2404746576
    7      H       2.3484839628     0.3690791900     0.6963811538
    8      H       1.3646994944    -1.8424852020    -0.1544886028
    9      H      -1.1184544910    -1.6721771973    -1.2692508370
   10      H      -2.1390566551     0.3319241469     0.2475261672
   11      H      -0.9324013946     2.4017897524    -0.8140687906
   12      C      -0.1168865512    -0.5130339190     0.9431450424
   13      H      -0.4139321551    -1.0994989759     1.8111885729
 ----------------------------------------------------------------

    2    -286.7925653797      2.40E-09 Convergence criterion met
 Total energy in the final basis set = -286.79256538

                    Orbital Energies (a.u.)
 --------------------------------------------------------------

 Alpha MOs
 -- Occupied --
-14.326 -10.237 -10.224 -10.221 -10.209 -10.209 -10.199  -0.963
 -0.865  -0.750  -0.641  -0.623  -0.599  -0.540  -0.493  -0.449
 -0.444  -0.420  -0.409  -0.370  -0.352  -0.301  -0.272  -0.237
 -0.137

 Beta MOs
 -- Occupied --
-14.326 -10.235 -10.223 -10.220 -10.209 -10.208 -10.187  -0.960
 -0.858  -0.745  -0.630  -0.613  -0.595  -0.536  -0.489  -0.442
 -0.439  -0.418  -0.402  -0.361  -0.349  -0.289  -0.266  -0.223

          Ground-State Mulliken Net Atomic Charges

     Atom                 Charge (a.u.)    Spin (a.u.)
  --------------------------------------------------------
      1 C                     0.001791       0.125015
      2 C                    -0.159972      -0.000645
      3 C                    -0.113833       0.863065
      4 C                    -0.265737      -0.005120
      5 C                     0.119091       0.064625
      6 N                    -0.350221      -0.011436
      7 H                     0.156923      -0.001178
      8 H                     0.148261      -0.003027
      9 H                     0.142076      -0.037815
     10 H                     0.140874       0.000195
     11 H                     0.146278      -0.002387
     12 C                    -0.117802      -0.002033
     13 H                     0.152270       0.010742
  --------------------------------------------------------
  Sum of atomic charges =     0.000000

                    Cartesian Multipole Moments
 -----------------------------------------------------------------
    Charge (ESU x 10^10)
                 0.0000
    Dipole Moment (Debye)
         X      -1.1771      Y      -1.9871      Z       1.0717
       Tot       2.5461
    Quadrupole Moments (Debye-Ang)
        XX     -37.8420     XY      -3.8186     YY     -41.2486
        XZ       1.2447     YZ      -0.8445     ZZ     -42.3548

 Frequency:      -700.90                 177.07                 387.33
 Force Cnst:      1.1603                 0.0299                 0.2321
 Red. Mass:       4.0086                 1.6178                 2.6262
 IR Intens:       24.242                 22.425                 10.433
 Frequency:       466.63                 545.07                 674.55
 Force Cnst:      0.4519                 0.6093                 1.4782
 Red. Mass:       3.5223                 3.4807                 5.5140
 IR Intens:       18.679                  4.399                  2.810
 Frequency:       700.83                 717.06                 790.98
 Force Cnst:      0.5485                 0.8601                 0.7750
 Red. Mass:       1.8956                 2.8391                 2.1026
 IR Intens:       11.227                 12.627                  4.235
 Frequency:       815.78                 860.43                 887.12
 Force Cnst:      0.6089                 0.9739                 0.6842
 Red. Mass:       1.5529                 2.2328                 1.4755
 IR Intens:       15.806                  0.695                 11.326
 Frequency:       903.73                 940.53                 989.85
 Force Cnst:      1.2242                 1.0134                 0.9099
 Red. Mass:       2.5439                 1.9444                 1.5761
 IR Intens:       21.065                 25.924                  2.822
 Frequency:      1012.29                1066.93                1098.81
 Force Cnst:      1.3071                 1.2298                 1.2879
 Red. Mass:       2.1649                 1.8337                 1.8105
 IR Intens:        6.310                  4.177                  0.978
 Frequency:      1156.53                1175.84                1195.04
 Force Cnst:      2.6284                 1.2367                 1.2267
 Red. Mass:       3.3352                 1.5182                 1.4579
 IR Intens:        5.688                 11.665                  5.197
 Frequency:      1245.28                1318.32                1320.88
 Force Cnst:      1.5189                 1.7170                 1.7213
 Red. Mass:       1.6624                 1.6768                 1.6745
 IR Intens:        8.418                  7.222                 15.531
 Frequency:      1362.40                1394.92                1610.65
 Force Cnst:      1.7782                 2.3557                10.0684
 Red. Mass:       1.6260                 2.0548                 6.5873
 IR Intens:       12.919                  1.347                 31.231
 Frequency:      3145.68                3169.06                3180.46
 Force Cnst:      6.3458                 6.4379                 6.5319
 Red. Mass:       1.0884                 1.0880                 1.0960
 IR Intens:       17.659                 16.786                 13.879
 Frequency:      3195.56                3218.16                3254.08
 Force Cnst:      6.5751                 6.6622                 6.8170
 Red. Mass:       1.0928                 1.0918                 1.0927
 IR Intens:       19.542                 11.075                  7.314

 STANDARD THERMODYNAMIC QUANTITIES AT   298.15 K  AND     1.00 ATM

   This Molecule has  1 Imaginary Frequencies
   Zero point vibrational energy:       62.869 kcal/mol

   Atom    1 Element C  Has Mass   12.00000
   Atom    2 Element C  Has Mass   12.00000
   Atom    3 Element C  Has Mass   12.00000
   Atom    4 Element C  Has Mass   12.00000
   Atom    5 Element C  Has Mass   12.00000
   Atom    6 Element N  Has Mass   14.00307
   Atom    7 Element H  Has Mass    1.00783
   Atom    8 Element H  Has Mass    1.00783
   Atom    9 Element H  Has Mass    1.00783
   Atom   10 Element H  Has Mass    1.00783
   Atom   11 Element H  Has Mass    1.00783
   Atom   12 Element C  Has Mass   12.00000
   Atom   13 Element H  Has Mass    1.00783
   Molecular Mass:    92.050050 amu
   Principal axes and moments of inertia in amu*Bohr^2:
                             1           2           3
    Eigenvalues --      359.91355   456.32591   616.24557
          X               0.23568     0.95274    -0.19167
          Y               0.97057    -0.22070     0.09637
          Z              -0.04951     0.20875     0.97672
   Rotational Symmetry Number is   1
   The Molecule is an Asymmetric Top
   Translational Enthalpy:        0.889 kcal/mol
   Rotational Enthalpy:           0.889 kcal/mol
   Vibrational Enthalpy:         64.322 kcal/mol
   gas constant (RT):             0.592 kcal/mol
   Translational Entropy:        39.471  cal/mol.K
   Rotational Entropy:           26.117  cal/mol.K
   Vibrational Entropy:           7.166  cal/mol.K

   Total Enthalpy:               66.692 kcal/mol
   Total Entropy:                72.754  cal/mol.K

 Total job time:  274.06s(wall), 264.90s(cpu)
        *  Thank you very much for using Q-Chem.  Have a nice day.  *
