 Q-Chem 5.0, Q-Chem, Inc., Pleasanton, CA (2017)
 Q-Chem 5.0.2 for Intel X86 EM64T Linux

User input:
--------------------------------------------------------------
$molecule
0 2
C        1.3699569263    0.3876070074    0.1957650425
C        0.7962359039   -0.9232183903   -0.2634523813
C       -0.5526305225   -0.8559927556   -0.9020065705
C       -1.0690194577    0.3313604876   -0.0171178789
C       -0.3927939344    1.5972679854   -0.3723918128
N        0.9020420528    1.6063969334   -0.2031628288
H        2.2851058846    0.3384985533    0.7785630007
H        1.4040661259   -1.8219788893   -0.2466098113
H       -1.1201191894   -1.7868356441   -0.9121125867
H       -2.1353058983    0.3571356852    0.1999345805
H       -0.9107637263    2.4558016049   -0.7908191205
C       -0.1444289084   -0.5379283927    0.8388420798
H       -0.4575282654   -1.1681663062    1.6694709078
$end

$rem
method                b3lyp
basis                 6-31+g(d,p)
unrestricted          true
symmetry              off
sym_ignore            true
incdft                false
incfock               0
scf_convergence       8
thresh                14
jobtype               ts
scf_guess             read
scf_algorithm         diis
max_scf_cycles        100
geom_opt_max_cycles   500
geom_opt_dmax         100
geom_opt_tol_gradient 10
geom_opt_hessian      read
$end

--------------------------------------------------------------

    2    -286.8140898721      2.67E-10 Convergence criterion met
 Total energy in the final basis set = -286.81408987
   14    -286.8141391572      7.21E-09 Convergence criterion met
 Total energy in the final basis set = -286.81413916

             Standard Nuclear Orientation (Angstroms)
    I     Atom           X                Y                Z
 ----------------------------------------------------------------
    1      C       1.3652822579     0.3834213914     0.2014157343
    2      C       0.8003240187    -0.9247048838    -0.2686708013
    3      C      -0.5530188979    -0.8607943198    -0.8904791226
    4      C      -1.0699545957     0.3334589931    -0.0203286709
    5      C      -0.3947767858     1.5993757263    -0.3760626621
    6      N       0.9009006467     1.6053830787    -0.2026901008
    7      H       2.2793846737     0.3335791436     0.7846045511
    8      H       1.4069442906    -1.8234083257    -0.2535264597
    9      H      -1.1227664222    -1.7891339741    -0.9185177125
   10      H      -2.1353459602     0.3579261561     0.1981097026
   11      H      -0.9119552406     2.4595848906    -0.7897892887
   12      C      -0.1420278808    -0.5344485533     0.8375177073
   13      H      -0.4481731133    -1.1602914440     1.6733197437
 ----------------------------------------------------------------

   12    -286.8141395731      5.86E-09 Convergence criterion met
 Total energy in the final basis set = -286.81413957
 Final energy is   -286.814139573110
 **  OPTIMIZATION CONVERGED  **

                    Orbital Energies (a.u.)
 --------------------------------------------------------------

 Alpha MOs
 -- Occupied --
-14.331 -10.252 -10.246 -10.232 -10.230 -10.228 -10.219  -0.979
 -0.888  -0.767  -0.655  -0.636  -0.613  -0.557  -0.506  -0.461
 -0.450  -0.433  -0.422  -0.380  -0.374  -0.321  -0.280  -0.257
 -0.137

 Beta MOs
 -- Occupied --
-14.331 -10.253 -10.243 -10.228 -10.227 -10.224 -10.215  -0.974
 -0.883  -0.760  -0.648  -0.627  -0.610  -0.553  -0.501  -0.458
 -0.443  -0.430  -0.412  -0.374  -0.366  -0.303  -0.273  -0.247

          Ground-State Mulliken Net Atomic Charges

     Atom                 Charge (a.u.)    Spin (a.u.)
  --------------------------------------------------------
      1 C                    -0.246812       0.247700
      2 C                    -0.062269       0.044807
      3 C                    -0.143841       0.605182
      4 C                    -0.264446      -0.043511
      5 C                     0.017895       0.245765
      6 N                    -0.199328      -0.006386
      7 H                     0.142968      -0.009223
      8 H                     0.150879      -0.007304
      9 H                     0.152881      -0.004667
     10 H                     0.139710      -0.002857
     11 H                     0.128425      -0.013487
     12 C                     0.035062      -0.070925
     13 H                     0.148876       0.014907
  --------------------------------------------------------
  Sum of atomic charges =     0.000000

                    Cartesian Multipole Moments
 -----------------------------------------------------------------
    Charge (ESU x 10^10)
                -0.0000
    Dipole Moment (Debye)
         X      -1.3344      Y      -2.8988      Z       1.3611
       Tot       3.4694
    Quadrupole Moments (Debye-Ang)
        XX     -39.3266     XY      -4.7191     YY     -43.3812
        XZ       0.9515     YZ      -1.2436     ZZ     -44.2845

 Total job time:  55.00s(wall), 199.25s(cpu)
        *  Thank you very much for using Q-Chem.  Have a nice day.  *
