 Q-Chem 5.0, Q-Chem, Inc., Pleasanton, CA (2017)
 Q-Chem 5.0.2 for Intel X86 EM64T Linux

User input:
--------------------------------------------------------------
$molecule
0 2
C        1.3781787822    0.3665340866    0.2096456921
C        0.7440746719   -0.9496988933   -0.1871485365
C       -0.5388534304   -0.8253852666   -0.9275363321
C       -1.0715597868    0.2839708887    0.0302503774
C       -0.4076348478    1.5583758913   -0.3702666285
N        0.8781593919    1.5705533774   -0.2404746576
H        2.3484839628    0.3690791900    0.6963811538
H        1.3646994944   -1.8424852020   -0.1544886028
H       -1.1184544910   -1.6721771973   -1.2692508370
H       -2.1390566551    0.3319241469    0.2475261672
H       -0.9324013946    2.4017897524   -0.8140687906
C       -0.1168865512   -0.5130339190    0.9431450424
H       -0.4139321551   -1.0994989759    1.8111885729
$end

$rem
method                b3lyp
basis                 6-31g(d)
unrestricted          true
symmetry              off
sym_ignore            true
incdft                false
incfock               0
scf_convergence       8
thresh                14
jobtype               ts
scf_guess             read
scf_algorithm         diis
max_scf_cycles        100
geom_opt_max_cycles   500
geom_opt_dmax         100
geom_opt_tol_gradient 10
geom_opt_hessian      read
$end

--------------------------------------------------------------

    2    -286.7925653797      6.14E-10 Convergence criterion met
 Total energy in the final basis set = -286.79256538
   15    -286.7921872131      4.67E-09 Convergence criterion met
 Total energy in the final basis set = -286.79218721
   15    -286.7919803084      5.25E-09 Convergence criterion met
 Total energy in the final basis set = -286.79198031
   15    -286.7918607234      5.12E-09 Convergence criterion met
 Total energy in the final basis set = -286.79186072
   15    -286.7917960489      4.75E-09 Convergence criterion met
 Total energy in the final basis set = -286.79179605
   15    -286.7917624849      4.40E-09 Convergence criterion met
 Total energy in the final basis set = -286.79176248
   15    -286.7917418041      4.14E-09 Convergence criterion met
 Total energy in the final basis set = -286.79174180
   15    -286.7917212519      4.00E-09 Convergence criterion met
   15    -286.7916793560      4.53E-09 Convergence criterion met
 Total energy in the final basis set = -286.79167936
   15    -286.7916854559      5.21E-09 Convergence criterion met
 Total energy in the final basis set = -286.79168546
   15    -286.7917167233      4.90E-09 Convergence criterion met
 Total energy in the final basis set = -286.79171672
   14    -286.7917427995      4.72E-09 Convergence criterion met
 Total energy in the final basis set = -286.79174280
   13    -286.7917477123      6.13E-09 Convergence criterion met
 Total energy in the final basis set = -286.79174771
   11    -286.7917480616      7.40E-09 Convergence criterion met
 Total energy in the final basis set = -286.79174806

             Standard Nuclear Orientation (Angstroms)
    I     Atom           X                Y                Z
 ----------------------------------------------------------------
    1      C       1.3699569263     0.3876070074     0.1957650425
    2      C       0.7962359039    -0.9232183903    -0.2634523813
    3      C      -0.5526305225    -0.8559927556    -0.9020065705
    4      C      -1.0690194577     0.3313604876    -0.0171178789
    5      C      -0.3927939344     1.5972679854    -0.3723918128
    6      N       0.9020420528     1.6063969334    -0.2031628288
    7      H       2.2851058846     0.3384985533     0.7785630007
    8      H       1.4040661259    -1.8219788893    -0.2466098113
    9      H      -1.1201191894    -1.7868356441    -0.9121125867
   10      H      -2.1353058983     0.3571356852     0.1999345805
   11      H      -0.9107637263     2.4558016049    -0.7908191205
   12      C      -0.1444289084    -0.5379283927     0.8388420798
   13      H      -0.4575282654    -1.1681663062     1.6694709078
 ----------------------------------------------------------------

    8    -286.7917480685      3.34E-09 Convergence criterion met
 Total energy in the final basis set = -286.79174807
 Final energy is   -286.791748068535
 **  OPTIMIZATION CONVERGED  **

                    Orbital Energies (a.u.)
 --------------------------------------------------------------

 Alpha MOs
 -- Occupied --
-14.316 -10.239 -10.234 -10.218 -10.218 -10.216 -10.208  -0.966
 -0.875  -0.755  -0.644  -0.625  -0.603  -0.547  -0.497  -0.450
 -0.439  -0.423  -0.412  -0.370  -0.363  -0.310  -0.267  -0.244
 -0.126

 Beta MOs
 -- Occupied --
-14.316 -10.240 -10.231 -10.216 -10.216 -10.210 -10.204  -0.961
 -0.871  -0.748  -0.636  -0.616  -0.600  -0.543  -0.492  -0.446
 -0.432  -0.419  -0.401  -0.363  -0.355  -0.290  -0.261  -0.234

          Ground-State Mulliken Net Atomic Charges

     Atom                 Charge (a.u.)    Spin (a.u.)
  --------------------------------------------------------
      1 C                     0.025902       0.247394
      2 C                    -0.172092       0.065455
      3 C                    -0.105788       0.576873
      4 C                    -0.250246       0.015920
      5 C                     0.096431       0.255482
      6 N                    -0.373925      -0.012275
      7 H                     0.152468      -0.010381
      8 H                     0.158671      -0.007373
      9 H                     0.146159      -0.004803
     10 H                     0.148748      -0.003160
     11 H                     0.138864      -0.013954
     12 C                    -0.124881      -0.127343
     13 H                     0.159689       0.018166
  --------------------------------------------------------
  Sum of atomic charges =    -0.000000

                    Cartesian Multipole Moments
 -----------------------------------------------------------------
    Charge (ESU x 10^10)
                 0.0000
    Dipole Moment (Debye)
         X      -1.2374      Y      -2.6392      Z       1.2966
       Tot       3.1902
    Quadrupole Moments (Debye-Ang)
        XX     -38.2613     XY      -4.0653     YY     -41.7087
        XZ       0.8414     YZ      -1.1996     ZZ     -42.5892

 Total job time:  261.84s(wall), 689.95s(cpu)
        *  Thank you very much for using Q-Chem.  Have a nice day.  *
