 Q-Chem 5.0, Q-Chem, Inc., Pleasanton, CA (2017)
 Q-Chem 5.0.2 for Intel X86 EM64T Linux

User input:
--------------------------------------------------------------
$molecule
0 2
C        1.3781787822    0.3665340866    0.2096456921
C        0.7440746719   -0.9496988933   -0.1871485365
C       -0.5388534304   -0.8253852666   -0.9275363321
C       -1.0715597868    0.2839708887    0.0302503774
C       -0.4076348478    1.5583758913   -0.3702666285
N        0.8781593919    1.5705533774   -0.2404746576
H        2.3484839628    0.3690791900    0.6963811538
H        1.3646994944   -1.8424852020   -0.1544886028
H       -1.1184544910   -1.6721771973   -1.2692508370
H       -2.1390566551    0.3319241469    0.2475261672
H       -0.9324013946    2.4017897524   -0.8140687906
C       -0.1168865512   -0.5130339190    0.9431450424
H       -0.4139321551   -1.0994989759    1.8111885729
$end

$rem
method                b3lyp
basis                 6-31g(d)
unrestricted          true
symmetry              off
sym_ignore            true
incdft                false
incfock               0
scf_convergence       6
thresh                14
jobtype               sp
scf_guess             read
scf_algorithm         diis
max_scf_cycles        100
stability_analysis    true
max_cis_cycles        100
cis_n_roots           4
$end

--------------------------------------------------------------

             Standard Nuclear Orientation (Angstroms)
    I     Atom           X                Y                Z
 ----------------------------------------------------------------
    1      C       1.3781787822     0.3665340866     0.2096456921
    2      C       0.7440746719    -0.9496988933    -0.1871485365
    3      C      -0.5388534304    -0.8253852666    -0.9275363321
    4      C      -1.0715597868     0.2839708887     0.0302503774
    5      C      -0.4076348478     1.5583758913    -0.3702666285
    6      N       0.8781593919     1.5705533774    -0.2404746576
    7      H       2.3484839628     0.3690791900     0.6963811538
    8      H       1.3646994944    -1.8424852020    -0.1544886028
    9      H      -1.1184544910    -1.6721771973    -1.2692508370
   10      H      -2.1390566551     0.3319241469     0.2475261672
   11      H      -0.9324013946     2.4017897524    -0.8140687906
   12      C      -0.1168865512    -0.5130339190     0.9431450424
   13      H      -0.4139321551    -1.0994989759     1.8111885729
 ----------------------------------------------------------------

    2    -286.7925653797      2.78E-09 Convergence criterion met
 Total energy in the final basis set = -286.79256538

         TDDFT/TDA Excitation Energies
 ---------------------------------------------------

 Excited state   1: excitation energy (eV) =    1.7019
 Total energy for state  1:                  -286.73002120 au
    <S**2>     :  0.9742
    Trans. Mom.: -0.1174 X  -0.3559 Y   0.0198 Z
    Strength   :     0.0058737242
    S(  1) --> V(  1) amplitude =  0.9706 alpha
    D( 24) --> S(  1) amplitude = -0.1970 beta

 Excited state   2: excitation energy (eV) =    3.4706
 Total energy for state  2:                  -286.66502141 au
    <S**2>     :  2.3527
    Trans. Mom.: -0.0026 X  -0.1980 Y  -0.0030 Z
    Strength   :     0.0033347789
    D( 24) --> V(  1) amplitude =  0.6161 alpha
    S(  1) --> V(  1) amplitude =  0.1711 alpha
    S(  1) --> V(  2) amplitude =  0.2973 alpha
    D( 24) --> S(  1) amplitude =  0.6444 beta
    D( 24) --> V(  1) amplitude =  0.2040 beta

 Excited state   3: excitation energy (eV) =    3.9249
 Total energy for state  3:                  -286.64832618 au
    <S**2>     :  1.2512
    Trans. Mom.:  0.1751 X  -0.0579 Y  -0.0220 Z
    Strength   :     0.0033162320
    D( 24) --> V(  1) amplitude = -0.2734 alpha
    S(  1) --> V(  2) amplitude =  0.8633 alpha
    D( 22) --> S(  1) amplitude =  0.1890 beta
    D( 24) --> V(  1) amplitude = -0.2966 beta
    D( 24) --> V(  2) amplitude = -0.1577 beta

 Excited state   4: excitation energy (eV) =    4.4049
 Total energy for state  4:                  -286.63068986 au
    <S**2>     :  0.8553
    Trans. Mom.: -0.2438 X  -0.4115 Y  -0.1998 Z
    Strength   :     0.0289969441
    D( 24) --> V(  1) amplitude = -0.2815 alpha
    S(  1) --> V(  2) amplitude = -0.2561 alpha
    D( 24) --> S(  1) amplitude =  0.5675 beta
    D( 24) --> V(  1) amplitude = -0.6694 beta

 ---------------------------------------------------

                    Orbital Energies (a.u.)
 --------------------------------------------------------------

 Alpha MOs
 -- Occupied --
-14.326 -10.237 -10.224 -10.221 -10.209 -10.209 -10.199  -0.963
 -0.865  -0.750  -0.641  -0.623  -0.599  -0.540  -0.493  -0.449
 -0.444  -0.420  -0.409  -0.370  -0.352  -0.301  -0.272  -0.237
 -0.137

 Beta MOs
 -- Occupied --
-14.326 -10.235 -10.223 -10.220 -10.209 -10.208 -10.187  -0.960
 -0.858  -0.745  -0.630  -0.613  -0.595  -0.536  -0.489  -0.442
 -0.439  -0.418  -0.402  -0.361  -0.349  -0.289  -0.266  -0.223

          Ground-State Mulliken Net Atomic Charges

     Atom                 Charge (a.u.)    Spin (a.u.)
  --------------------------------------------------------
      1 C                     0.001791       0.125016
      2 C                    -0.159972      -0.000645
      3 C                    -0.113833       0.863065
      4 C                    -0.265737      -0.005120
      5 C                     0.119091       0.064627
      6 N                    -0.350221      -0.011438
      7 H                     0.156923      -0.001178
      8 H                     0.148261      -0.003027
      9 H                     0.142076      -0.037815
     10 H                     0.140874       0.000195
     11 H                     0.146278      -0.002387
     12 C                    -0.117802      -0.002033
     13 H                     0.152270       0.010742
  --------------------------------------------------------
  Sum of atomic charges =    -0.000000

                    Cartesian Multipole Moments
 -----------------------------------------------------------------
    Charge (ESU x 10^10)
                 0.0000
    Dipole Moment (Debye)
         X      -1.1771      Y      -1.9871      Z       1.0717
       Tot       2.5461
    Quadrupole Moments (Debye-Ang)
        XX     -37.8420     XY      -3.8186     YY     -41.2486
        XZ       1.2447     YZ      -0.8445     ZZ     -42.3548

 Total job time:  92.69s(wall), 85.53s(cpu)
        *  Thank you very much for using Q-Chem.  Have a nice day.  *
