 Q-Chem 5.0, Q-Chem, Inc., Pleasanton, CA (2017)
 Q-Chem 5.0.2 for Intel X86 EM64T Linux

User input:
--------------------------------------------------------------
$molecule
0 2
C        1.3699569263    0.3876070074    0.1957650425
C        0.7962359039   -0.9232183903   -0.2634523813
C       -0.5526305225   -0.8559927556   -0.9020065705
C       -1.0690194577    0.3313604876   -0.0171178789
C       -0.3927939344    1.5972679854   -0.3723918128
N        0.9020420528    1.6063969334   -0.2031628288
H        2.2851058846    0.3384985533    0.7785630007
H        1.4040661259   -1.8219788893   -0.2466098113
H       -1.1201191894   -1.7868356441   -0.9121125867
H       -2.1353058983    0.3571356852    0.1999345805
H       -0.9107637263    2.4558016049   -0.7908191205
C       -0.1444289084   -0.5379283927    0.8388420798
H       -0.4575282654   -1.1681663062    1.6694709078
$end

$rem
method                b3lyp
basis                 6-31+g(d,p)
unrestricted          true
symmetry              off
sym_ignore            true
incdft                false
incfock               0
scf_convergence       6
thresh                14
jobtype               sp
scf_guess             read
scf_algorithm         diis
max_scf_cycles        100
stability_analysis    true
max_cis_cycles        100
cis_n_roots           4
$end

--------------------------------------------------------------

             Standard Nuclear Orientation (Angstroms)
    I     Atom           X                Y                Z
 ----------------------------------------------------------------
    1      C       1.3699569263     0.3876070074     0.1957650425
    2      C       0.7962359039    -0.9232183903    -0.2634523813
    3      C      -0.5526305225    -0.8559927556    -0.9020065705
    4      C      -1.0690194577     0.3313604876    -0.0171178789
    5      C      -0.3927939344     1.5972679854    -0.3723918128
    6      N       0.9020420528     1.6063969334    -0.2031628288
    7      H       2.2851058846     0.3384985533     0.7785630007
    8      H       1.4040661259    -1.8219788893    -0.2466098113
    9      H      -1.1201191894    -1.7868356441    -0.9121125867
   10      H      -2.1353058983     0.3571356852     0.1999345805
   11      H      -0.9107637263     2.4558016049    -0.7908191205
   12      C      -0.1444289084    -0.5379283927     0.8388420798
   13      H      -0.4575282654    -1.1681663062     1.6694709078
 ----------------------------------------------------------------

    2    -286.8140898721      3.53E-09 Convergence criterion met
 Total energy in the final basis set = -286.81408987

         TDDFT/TDA Excitation Energies
 ---------------------------------------------------

 Excited state   1: excitation energy (eV) =    1.7361
 Total energy for state  1:                  -286.75029038 au
    <S**2>     :  0.7792
    Trans. Mom.: -0.1228 X  -0.6350 Y  -0.2002 Z
    Strength   :     0.0194962816
    S(  1) --> V(  1) amplitude =  0.9708 alpha
    D( 24) --> S(  1) amplitude = -0.1718 beta

 Excited state   2: excitation energy (eV) =    2.7145
 Total energy for state  2:                  -286.71433421 au
    <S**2>     :  0.7909
    Trans. Mom.:  0.1355 X   0.3056 Y  -0.2124 Z
    Strength   :     0.0104330667
    S(  1) --> V(  2) amplitude =  0.9951 alpha

 Excited state   3: excitation energy (eV) =    3.1684
 Total energy for state  3:                  -286.69765353 au
    <S**2>     :  0.8105
    Trans. Mom.: -0.2640 X   0.1755 Y   0.0485 Z
    Strength   :     0.0079830533
    S(  1) --> V(  3) amplitude =  0.8407 alpha
    S(  1) --> V(  4) amplitude = -0.4376 alpha
    S(  1) --> V(  6) amplitude = -0.1675 alpha

 Excited state   4: excitation energy (eV) =    3.3887
 Total energy for state  4:                  -286.68955787 au
    <S**2>     :  0.7907
    Trans. Mom.: -0.1344 X   0.1231 Y  -0.0220 Z
    Strength   :     0.0027991887
    S(  1) --> V(  3) amplitude =  0.4713 alpha
    S(  1) --> V(  4) amplitude =  0.8780 alpha

 ---------------------------------------------------

                    Orbital Energies (a.u.)
 --------------------------------------------------------------

 Alpha MOs
 -- Occupied --
-14.332 -10.251 -10.246 -10.232 -10.230 -10.228 -10.220  -0.979
 -0.888  -0.767  -0.655  -0.637  -0.613  -0.556  -0.505  -0.461
 -0.449  -0.433  -0.422  -0.381  -0.374  -0.321  -0.281  -0.256
 -0.139

 Beta MOs
 -- Occupied --
-14.332 -10.252 -10.243 -10.228 -10.227 -10.224 -10.216  -0.975
 -0.884  -0.759  -0.647  -0.627  -0.610  -0.553  -0.500  -0.458
 -0.443  -0.429  -0.412  -0.374  -0.366  -0.303  -0.275  -0.246

          Ground-State Mulliken Net Atomic Charges

     Atom                 Charge (a.u.)    Spin (a.u.)
  --------------------------------------------------------
      1 C                    -0.241099       0.258374
      2 C                    -0.064723       0.038199
      3 C                    -0.146058       0.611489
      4 C                    -0.270064      -0.045383
      5 C                     0.021301       0.245653
      6 N                    -0.197064      -0.011833
      7 H                     0.142767      -0.009864
      8 H                     0.150426      -0.007066
      9 H                     0.152502      -0.003486
     10 H                     0.139790      -0.002818
     11 H                     0.128439      -0.013607
     12 C                     0.035662      -0.075382
     13 H                     0.148122       0.015725
  --------------------------------------------------------
  Sum of atomic charges =    -0.000000

                    Cartesian Multipole Moments
 -----------------------------------------------------------------
    Charge (ESU x 10^10)
                -0.0000
    Dipole Moment (Debye)
         X      -1.3230      Y      -2.8414      Z       1.3753
       Tot       3.4228
    Quadrupole Moments (Debye-Ang)
        XX     -39.3207     XY      -4.6813     YY     -43.3210
        XZ       0.9063     YZ      -1.2903     ZZ     -44.3874

 Total job time:  196.51s(wall), 185.63s(cpu)
        *  Thank you very much for using Q-Chem.  Have a nice day.  *
