 Q-Chem 5.0, Q-Chem, Inc., Pleasanton, CA (2017)
 Q-Chem 5.0.2 for Intel X86 EM64T Linux

User input:
--------------------------------------------------------------
$molecule
0 2
C        2.2584288351    1.0597600824   -1.8455223180
C       -1.2580442138   -0.5676774256   -0.2536794732
C       -2.0718684429   -1.0625265242    0.8515765020
C       -1.4377198753   -0.6406995989    1.9822560023
C       -0.2667130182    0.0895782587    1.5155514022
N       -0.1820218247    0.1209062931    0.1704075197
H        1.4361456963    0.8485105028   -1.1831911370
H       -1.4479014462   -0.6947308190   -1.3140468850
H       -2.9828470110   -1.6405364081    0.7710972583
H       -1.7252001694   -0.8001890932    3.0134168747
H        0.4899452783    0.5624480991    2.1318997399
C        3.1831116185    1.2676206499   -2.5933326195
H        4.0046845735    1.4575359831   -3.2464328665
$end

$rem
method                b3lyp
basis                 6-31g(d)
unrestricted          true
symmetry              off
sym_ignore            true
incdft                false
incfock               0
scf_convergence       8
thresh                14
jobtype               opt
scf_guess             read
scf_algorithm         diis
max_scf_cycles        100
geom_opt_tol_gradient 600
geom_opt_tol_displacement 2400
geom_opt_tol_energy   200
geom_opt_max_cycles   100
$end

--------------------------------------------------------------

    2    -286.8436405762      1.06E-09 Convergence criterion met
 Total energy in the final basis set = -286.84364058
   12    -286.8436444277      7.33E-09 Convergence criterion met
 Total energy in the final basis set = -286.84364443
   13    -286.8436520295      6.33E-09 Convergence criterion met
 Total energy in the final basis set = -286.84365203
   13    -286.8436587412      6.84E-09 Convergence criterion met
 Total energy in the final basis set = -286.84365874
   13    -286.8436624675      4.18E-09 Convergence criterion met
 Total energy in the final basis set = -286.84366247

             Standard Nuclear Orientation (Angstroms)
    I     Atom           X                Y                Z
 ----------------------------------------------------------------
    1      C       2.2575803101     1.0558716769    -1.8477891004
    2      C      -1.2602825502    -0.5639295182    -0.2531502081
    3      C      -2.0729625426    -1.0622926560     0.8510293457
    4      C      -1.4384477186    -0.6407784440     1.9819766703
    5      C      -0.2636933303     0.0875688939     1.5158793464
    6      N      -0.1806462599     0.1220881022     0.1714126260
    7      H       1.4388578029     0.8474921153    -1.1809816611
    8      H      -1.4510204261    -0.6997988641    -1.3134131528
    9      H      -2.9842624262    -1.6406660726     0.7659551128
   10      H      -1.7225381090    -0.8002841833     3.0141603208
   11      H       0.4906614385     0.5663617577     2.1328294373
   12      C       3.1838310078     1.2698248431    -2.5910034030
   13      H       4.0029228038     1.4585423492    -3.2469053338
 ----------------------------------------------------------------

   12    -286.8436658196      6.78E-09 Convergence criterion met
 Total energy in the final basis set = -286.84366582
 Final energy is   -286.843665819561
 **  OPTIMIZATION CONVERGED  **

                    Orbital Energies (a.u.)
 --------------------------------------------------------------

 Alpha MOs
 -- Occupied --
-14.331 -10.253 -10.253 -10.211 -10.210 -10.165 -10.161  -0.971
 -0.781  -0.734  -0.717  -0.582  -0.576  -0.540  -0.529  -0.462
 -0.429  -0.422  -0.415  -0.403  -0.286  -0.264  -0.257  -0.257
 -0.253

 Beta MOs
 -- Occupied --
-14.334 -10.245 -10.245 -10.210 -10.209 -10.165 -10.161  -0.964
 -0.778  -0.717  -0.713  -0.576  -0.565  -0.539  -0.527  -0.462
 -0.426  -0.413  -0.397  -0.392  -0.287  -0.261  -0.257  -0.257

          Ground-State Mulliken Net Atomic Charges

     Atom                 Charge (a.u.)    Spin (a.u.)
  --------------------------------------------------------
      1 C                    -0.111044      -0.000195
      2 C                     0.070717       0.534227
      3 C                    -0.154033       0.081197
      4 C                    -0.156668       0.081247
      5 C                     0.072392       0.534257
      6 N                    -0.413882      -0.167921
      7 H                     0.229527       0.001415
      8 H                     0.163814      -0.026262
      9 H                     0.152454      -0.005824
     10 H                     0.152416      -0.005871
     11 H                     0.163248      -0.026220
     12 C                    -0.342184      -0.000067
     13 H                     0.173244       0.000017
  --------------------------------------------------------
  Sum of atomic charges =    -0.000000

                    Cartesian Multipole Moments
 -----------------------------------------------------------------
    Charge (ESU x 10^10)
                 0.0000
    Dipole Moment (Debye)
         X      -2.2511      Y      -1.2431      Z       1.8153
       Tot       3.1477
    Quadrupole Moments (Debye-Ang)
        XX     -37.1557     XY       2.6674     YY     -42.2679
        XZ      -0.6976     YZ       0.7636     ZZ     -35.2156

 Total job time:  221.25s(wall), 181.95s(cpu)
        *  Thank you very much for using Q-Chem.  Have a nice day.  *
