 Q-Chem 5.0, Q-Chem, Inc., Pleasanton, CA (2017)
 Q-Chem 5.0.2 for Intel X86 EM64T Linux

User input:
--------------------------------------------------------------
$molecule
0 2
C        1.4409046990    0.0629981869   -0.5651728416
C        0.5581024731   -1.0998890994   -0.9627523535
C       -0.9203716989   -0.6618279646   -1.8719528887
C       -1.3285943967   -0.1110408063   -0.3868352949
C       -0.7608343953    0.7255995047   -1.3986268366
N        0.8419694141    1.2030975964   -1.3684242769
H        2.4761512958    0.1586498407   -0.0491117674
H        0.5807283859   -2.1956017844   -1.0287875738
H       -1.3496487149   -0.4236350327   -2.9133844742
H       -2.3868023414   -0.0087028593   -0.1698006820
H       -1.2505366251    1.6645343021   -1.6158442856
C        0.1309913711   -0.2585945210    0.2737761833
H        0.4092771381   -0.5369309427    1.2726827931
$end

$rem
method                b3lyp
basis                 6-31g(d)
unrestricted          true
symmetry              off
sym_ignore            true
incdft                false
incfock               0
scf_convergence       8
thresh                14
jobtype               opt
scf_guess             read
scf_algorithm         diis
max_scf_cycles        100
geom_opt_tol_gradient 600
geom_opt_tol_displacement 2400
geom_opt_tol_energy   200
geom_opt_max_cycles   100
$end

--------------------------------------------------------------

    2    -286.6335618128      7.27E-10 Convergence criterion met
 Total energy in the final basis set = -286.63356181
   14    -286.6725900763      5.35E-09 Convergence criterion met
 Total energy in the final basis set = -286.67259008
   14    -286.7063446920      6.51E-09 Convergence criterion met
 Total energy in the final basis set = -286.70634469
   14    -286.7336144193      6.25E-09 Convergence criterion met
 Total energy in the final basis set = -286.73361442
   14    -286.7553915296      6.69E-09 Convergence criterion met
 Total energy in the final basis set = -286.75539153
   14    -286.7725565336      3.90E-09 Convergence criterion met
 Total energy in the final basis set = -286.77255653
   14    -286.7859727053      4.08E-09 Convergence criterion met
 Total energy in the final basis set = -286.78597271
   14    -286.7963492287      3.26E-09 Convergence criterion met
   13    -286.8231045643      7.49E-09 Convergence criterion met
 Total energy in the final basis set = -286.82310456
   13    -286.8243599657      5.72E-09 Convergence criterion met
 Total energy in the final basis set = -286.82435997
   13    -286.8249104884      3.02E-09 Convergence criterion met
 Total energy in the final basis set = -286.82491049
   12    -286.8249582875      3.01E-09 Convergence criterion met
 Total energy in the final basis set = -286.82495829
   10    -286.8249722748      7.10E-09 Convergence criterion met
 Total energy in the final basis set = -286.82497227
   10    -286.8249747065      8.48E-09 Convergence criterion met
 Total energy in the final basis set = -286.82497471

             Standard Nuclear Orientation (Angstroms)
    I     Atom           X                Y                Z
 ----------------------------------------------------------------
    1      C       1.1893155155     0.1461264019    -0.5312222662
    2      C       0.4722841667    -1.1165868988    -1.0480909451
    3      C      -0.7899603988    -0.5180313124    -1.7184823969
    4      C      -1.2077140032     0.0763992858    -0.4023701805
    5      C      -0.5955859002     0.9922823653    -1.4791982644
    6      N       0.7522059172     1.3141478817    -1.1975220882
    7      H       2.2147713922     0.0934408260    -0.1822843415
    8      H       0.9737547745    -2.0508101909    -1.2746338395
    9      H      -1.3818511740    -0.9350169302    -2.5255631238
   10      H      -2.1925934540     0.2183112947     0.0282744469
   11      H      -1.2104569175     1.7171772710    -2.0011366060
   12      C       0.0543736489    -0.5219095178     0.2682108704
   13      H       0.1627930375    -0.8968740558     1.2797844359
 ----------------------------------------------------------------

    9    -286.8249748142      7.63E-09 Convergence criterion met
 Total energy in the final basis set = -286.82497481
 Final energy is   -286.824974814226
 **  OPTIMIZATION CONVERGED  **

                    Orbital Energies (a.u.)
 --------------------------------------------------------------

 Alpha MOs
 -- Occupied --
-14.335 -10.215 -10.215 -10.207 -10.207 -10.207 -10.206  -0.986
 -0.836  -0.793  -0.649  -0.588  -0.574  -0.542  -0.533  -0.455
 -0.427  -0.415  -0.395  -0.384  -0.337  -0.275  -0.274  -0.248
 -0.212

 Beta MOs
 -- Occupied --
-14.319 -10.217 -10.216 -10.205 -10.205 -10.205 -10.205  -0.976
 -0.811  -0.789  -0.644  -0.585  -0.568  -0.537  -0.529  -0.453
 -0.423  -0.392  -0.389  -0.378  -0.322  -0.269  -0.257  -0.244

          Ground-State Mulliken Net Atomic Charges

     Atom                 Charge (a.u.)    Spin (a.u.)
  --------------------------------------------------------
      1 C                    -0.044941      -0.080296
      2 C                    -0.124732       0.089413
      3 C                    -0.125061       0.089511
      4 C                    -0.124802       0.088810
      5 C                    -0.044605      -0.080269
      6 N                    -0.285927       0.811651
      7 H                     0.149323       0.001045
      8 H                     0.144029      -0.002497
      9 H                     0.144014      -0.002498
     10 H                     0.143986      -0.002461
     11 H                     0.149348       0.001045
     12 C                    -0.124577       0.089027
     13 H                     0.143944      -0.002482
  --------------------------------------------------------
  Sum of atomic charges =     0.000000

                    Cartesian Multipole Moments
 -----------------------------------------------------------------
    Charge (ESU x 10^10)
                 0.0000
    Dipole Moment (Debye)
         X      -1.1830      Y      -1.9352      Z       0.5005
       Tot       2.3227
    Quadrupole Moments (Debye-Ang)
        XX     -38.0045     XY      -3.7425     YY     -42.8935
        XZ       3.1628     YZ       1.9775     ZZ     -39.8236

 Total job time:  762.20s(wall), 834.97s(cpu)
        *  Thank you very much for using Q-Chem.  Have a nice day.  *
