 Q-Chem 5.0, Q-Chem, Inc., Pleasanton, CA (2017)
 Q-Chem 5.0.2 for Intel X86 EM64T Linux

User input:
--------------------------------------------------------------
$molecule
0 2
C        1.5285891860    0.4169021920   -0.3204573700
C        0.7924152391   -0.8449724623   -0.0506289343
C       -0.5509933966   -0.6793166564   -0.6647621649
C       -0.9892610401    0.7033440775    0.8720753215
C       -0.6208521583    0.8977831461   -0.5916639941
N        0.7765302450    1.4008668700   -0.6626684498
H        2.6046797791    0.5324697333   -0.2064040903
H        1.2763536537   -1.8147353753    0.0124492597
H       -1.0661787995   -1.3583167354   -1.3356878931
H       -1.2653748674    1.4007770027    1.6548888164
H       -1.2927191981    1.4613109497   -1.2397330974
C       -0.5218553926   -0.6757682741    0.8682179079
H       -0.7322731416   -1.4731134033    1.5722870930
$end

$rem
method                b3lyp
basis                 6-31+g(d,p)
unrestricted          true
symmetry              off
sym_ignore            true
incdft                false
incfock               0
scf_convergence       8
thresh                14
jobtype               opt
scf_guess             read
scf_algorithm         diis
max_scf_cycles        100
geom_opt_max_cycles   300
$end

--------------------------------------------------------------

   16    -286.8599320751      4.21E-09 Convergence criterion met
 Total energy in the final basis set = -286.85993208
   13    -286.8600771931      5.40E-09 Convergence criterion met
 Total energy in the final basis set = -286.86007719
   12    -286.8602053887      4.85E-09 Convergence criterion met
 Total energy in the final basis set = -286.86020539
   11    -286.8602787753      6.05E-09 Convergence criterion met
 Total energy in the final basis set = -286.86027878
   10    -286.8602887162      8.04E-09 Convergence criterion met
 Total energy in the final basis set = -286.86028872
    9    -286.8602899828      7.21E-09 Convergence criterion met
 Total energy in the final basis set = -286.86028998

             Standard Nuclear Orientation (Angstroms)
    I     Atom           X                Y                Z
 ----------------------------------------------------------------
    1      C       1.5118587776     0.4275682003    -0.3040647727
    2      C       0.7846516808    -0.8424436064    -0.0456436434
    3      C      -0.5556928337    -0.6881756946    -0.6732162009
    4      C      -0.9979389865     0.7000685965     0.8677126079
    5      C      -0.6361138071     0.8872189626    -0.6008442239
    6      N       0.7558204550     1.4042654719    -0.6597741790
    7      H       2.5840822069     0.5572778280    -0.1687910259
    8      H       1.2779193003    -1.8065784711     0.0235984289
    9      H      -1.0470084581    -1.3720214586    -1.3577133034
   10      H      -1.1265841580     1.4274740560     1.6638751030
   11      H      -1.3126246913     1.4429656031    -1.2507599149
   12      C      -0.5433019160    -0.6857299607     0.8558634534
   13      H      -0.7560074613    -1.4846584626     1.5576700755
 ----------------------------------------------------------------

    8    -286.8602900937      6.87E-09 Convergence criterion met
 Total energy in the final basis set = -286.86029009
 Final energy is   -286.860290093659
 **  OPTIMIZATION CONVERGED  **

                    Orbital Energies (a.u.)
 --------------------------------------------------------------

 Alpha MOs
 -- Occupied --
-14.332 -10.230 -10.230 -10.224 -10.222 -10.219 -10.211  -0.974
 -0.866  -0.757  -0.667  -0.618  -0.581  -0.544  -0.528  -0.473
 -0.441  -0.421  -0.398  -0.371  -0.347  -0.314  -0.274  -0.269
 -0.196

 Beta MOs
 -- Occupied --
-14.331 -10.231 -10.230 -10.225 -10.220 -10.217 -10.199  -0.970
 -0.862  -0.747  -0.657  -0.612  -0.577  -0.542  -0.518  -0.470
 -0.435  -0.416  -0.394  -0.367  -0.335  -0.305  -0.269  -0.266

          Ground-State Mulliken Net Atomic Charges

     Atom                 Charge (a.u.)    Spin (a.u.)
  --------------------------------------------------------
      1 C                    -0.097468       0.044421
      2 C                    -0.093646       0.113709
      3 C                    -0.126014       0.059771
      4 C                    -0.071739       1.021696
      5 C                    -0.075512      -0.123372
      6 N                    -0.210050       0.028500
      7 H                     0.132513       0.004396
      8 H                     0.138051       0.001095
      9 H                     0.132578      -0.000569
     10 H                     0.130143      -0.023061
     11 H                     0.135716       0.019276
     12 C                    -0.135188      -0.150671
     13 H                     0.140618       0.004811
  --------------------------------------------------------
  Sum of atomic charges =    -0.000000

                    Cartesian Multipole Moments
 -----------------------------------------------------------------
    Charge (ESU x 10^10)
                -0.0000
    Dipole Moment (Debye)
         X      -0.3631      Y      -2.6304      Z       0.6034
       Tot       2.7230
    Quadrupole Moments (Debye-Ang)
        XX     -40.0981     XY      -2.9315     YY     -43.7160
        XZ       1.7291     YZ       1.6856     ZZ     -41.3205

 Total job time:  136.33s(wall), 527.02s(cpu)
        *  Thank you very much for using Q-Chem.  Have a nice day.  *
