 Q-Chem 5.0, Q-Chem, Inc., Pleasanton, CA (2017)
 Q-Chem 5.0.2 for Intel X86 EM64T Linux

User input:
--------------------------------------------------------------
$molecule
0 2
C        1.5186035912    0.3483820933   -0.2803863778
C        0.6272379572   -0.8913170642   -0.0668529239
C       -0.4069351032   -0.5259029090   -1.1367515478
C       -0.9951853727    0.5116319481    0.8184219776
C       -0.5953048619    0.8937365348   -0.6164984204
N        0.8415205726    1.3867291132   -0.5898735946
H        2.6000202719    0.3685205246   -0.1642559744
H        1.1114359062   -1.8671197374   -0.0812541990
H       -1.2281252759   -1.1849417420   -1.4112369089
H       -1.7150591909    1.0458316081    1.4276161304
H       -1.2491066810    1.5856413769   -1.1432615548
C       -0.2592928466   -0.5639162483    1.1532175467
H       -0.2498089669   -1.1072754984    2.0911158473
$end

$rem
method                b3lyp
basis                 6-31+g(d,p)
unrestricted          true
symmetry              off
sym_ignore            true
incdft                false
incfock               0
scf_convergence       8
thresh                14
jobtype               sp
scf_guess             read
scf_algorithm         diis
max_scf_cycles        100
scf_final_print       1
$end

--------------------------------------------------------------

             Standard Nuclear Orientation (Angstroms)
    I     Atom           X                Y                Z
 ----------------------------------------------------------------
    1      C       1.5186035912     0.3483820933    -0.2803863778
    2      C       0.6272379572    -0.8913170642    -0.0668529239
    3      C      -0.4069351032    -0.5259029090    -1.1367515478
    4      C      -0.9951853727     0.5116319481     0.8184219776
    5      C      -0.5953048619     0.8937365348    -0.6164984204
    6      N       0.8415205726     1.3867291132    -0.5898735946
    7      H       2.6000202719     0.3685205246    -0.1642559744
    8      H       1.1114359062    -1.8671197374    -0.0812541990
    9      H      -1.2281252759    -1.1849417420    -1.4112369089
   10      H      -1.7150591909     1.0458316081     1.4276161304
   11      H      -1.2491066810     1.5856413769    -1.1432615548
   12      C      -0.2592928466    -0.5639162483     1.1532175467
   13      H      -0.2498089669    -1.1072754984     2.0911158473
 ----------------------------------------------------------------

    2    -286.8734821169      1.33E-09 Convergence criterion met
 Total energy in the final basis set = -286.87348212

                    Orbital Energies (a.u.)
 --------------------------------------------------------------

 Alpha MOs
 -- Occupied --
-14.337 -10.234 -10.231 -10.221 -10.216 -10.213 -10.209  -0.965
 -0.833  -0.737  -0.715  -0.589  -0.583  -0.539  -0.520  -0.481
 -0.429  -0.420  -0.391  -0.383  -0.358  -0.305  -0.283  -0.271
 -0.206

 Beta MOs
 -- Occupied --
-14.336 -10.235 -10.231 -10.221 -10.212 -10.208 -10.202  -0.961
 -0.827  -0.735  -0.700  -0.587  -0.571  -0.536  -0.517  -0.472
 -0.425  -0.416  -0.389  -0.380  -0.352  -0.298  -0.273  -0.268

          Ground-State Mulliken Net Atomic Charges

     Atom                 Charge (a.u.)    Spin (a.u.)
  --------------------------------------------------------
      1 C                    -0.091826      -0.030751
      2 C                     0.008503      -0.061121
      3 C                    -0.271190       1.034155
      4 C                    -0.146885       0.048259
      5 C                     0.023897      -0.089783
      6 N                    -0.202818       0.024827
      7 H                     0.137339      -0.000128
      8 H                     0.124681       0.003497
      9 H                     0.138942      -0.026050
     10 H                     0.138877       0.000615
     11 H                     0.129378       0.003589
     12 C                    -0.127485       0.092692
     13 H                     0.138588       0.000200
  --------------------------------------------------------
  Sum of atomic charges =    -0.000000

                    Cartesian Multipole Moments
 -----------------------------------------------------------------
    Charge (ESU x 10^10)
                -0.0000
    Dipole Moment (Debye)
         X      -0.7348      Y      -2.1333      Z       1.2829
       Tot       2.5955
    Quadrupole Moments (Debye-Ang)
        XX     -38.4313     XY      -4.5414     YY     -44.4419
        XZ       1.3251     YZ       0.6785     ZZ     -42.6114

 Total job time:  3.18s(wall), 11.54s(cpu)
        *  Thank you very much for using Q-Chem.  Have a nice day.  *
