 Q-Chem 5.0, Q-Chem, Inc., Pleasanton, CA (2017)
 Q-Chem 5.0.2 for Intel X86 EM64T Linux

User input:
--------------------------------------------------------------
$molecule
0 2
C        1.5152450427    0.4300405913   -0.3036001304
C        0.7887463348   -0.8402348371   -0.0442995949
C       -0.5546056981   -0.6840028825   -0.6647507921
C       -0.9884024823    0.7012255347    0.8811547136
C       -0.6338281134    0.8912473481   -0.5887312104
N        0.7580574143    1.4079357313   -0.6535347267
H        2.5882137149    0.5589942981   -0.1737010435
H        1.2819486716   -1.8047242421    0.0203290160
H       -1.0495819725   -1.3662377475   -1.3482248869
H       -1.1136940818    1.4267744795    1.6795823481
H       -1.3131652223    1.4486816884   -1.2342217103
C       -0.5346846560   -0.6847571093    0.8643429646
H       -0.7442489518   -1.4849428529    1.5656550528
$end

$rem
method                b3lyp
basis                 6-31+g(d,p)
unrestricted          true
symmetry              off
sym_ignore            true
incdft                false
incfock               0
scf_convergence       6
thresh                14
jobtype               sp
scf_guess             read
scf_algorithm         diis
max_scf_cycles        100
stability_analysis    true
max_cis_cycles        100
cis_n_roots           4
$end

--------------------------------------------------------------

             Standard Nuclear Orientation (Angstroms)
    I     Atom           X                Y                Z
 ----------------------------------------------------------------
    1      C       1.5152450427     0.4300405913    -0.3036001304
    2      C       0.7887463348    -0.8402348371    -0.0442995949
    3      C      -0.5546056981    -0.6840028825    -0.6647507921
    4      C      -0.9884024823     0.7012255347     0.8811547136
    5      C      -0.6338281134     0.8912473481    -0.5887312104
    6      N       0.7580574143     1.4079357313    -0.6535347267
    7      H       2.5882137149     0.5589942981    -0.1737010435
    8      H       1.2819486716    -1.8047242421     0.0203290160
    9      H      -1.0495819725    -1.3662377475    -1.3482248869
   10      H      -1.1136940818     1.4267744795     1.6795823481
   11      H      -1.3131652223     1.4486816884    -1.2342217103
   12      C      -0.5346846560    -0.6847571093     0.8643429646
   13      H      -0.7442489518    -1.4849428529     1.5656550528
 ----------------------------------------------------------------

    2    -286.8602892655      3.98E-10 Convergence criterion met
 Total energy in the final basis set = -286.86028927

         TDDFT/TDA Excitation Energies
 ---------------------------------------------------

 Excited state   1: excitation energy (eV) =    3.6441
 Total energy for state  1:                  -286.72637286 au
    <S**2>     :  0.9003
    Trans. Mom.:  0.3686 X   0.0520 Y  -0.2251 Z
    Strength   :     0.0168926681
    S(  1) --> V(  1) amplitude =  0.9456 alpha
    D( 24) --> S(  1) amplitude = -0.2040 beta

 Excited state   2: excitation energy (eV) =    3.8074
 Total energy for state  2:                  -286.72036998 au
    <S**2>     :  1.1913
    Trans. Mom.:  0.0238 X  -0.0119 Y  -0.1202 Z
    Strength   :     0.0014128785
    D( 23) --> V(  1) amplitude = -0.2478 alpha
    D( 23) --> S(  1) amplitude =  0.8574 beta
    D( 23) --> V(  1) amplitude =  0.1593 beta
    D( 24) --> S(  1) amplitude = -0.3685 beta

 Excited state   3: excitation energy (eV) =    3.9353
 Total energy for state  3:                  -286.71566972 au
    <S**2>     :  1.0985
    Trans. Mom.:  0.2690 X   0.1041 Y  -0.0433 Z
    Strength   :     0.0082032490
    D( 23) --> V(  1) amplitude = -0.1652 alpha
    S(  1) --> V(  1) amplitude =  0.2535 alpha
    D( 23) --> S(  1) amplitude =  0.2936 beta
    D( 24) --> S(  1) amplitude =  0.8658 beta
    D( 24) --> V(  1) amplitude =  0.1740 beta

 Excited state   4: excitation energy (eV) =    4.5210
 Total energy for state  4:                  -286.69414630 au
    <S**2>     :  0.8270
    Trans. Mom.: -0.1998 X   0.0087 Y   0.0218 Z
    Strength   :     0.0044806702
    S(  1) --> V(  2) amplitude =  0.9690 alpha

 ---------------------------------------------------

                    Orbital Energies (a.u.)
 --------------------------------------------------------------

 Alpha MOs
 -- Occupied --
-14.332 -10.230 -10.230 -10.224 -10.222 -10.219 -10.211  -0.974
 -0.866  -0.757  -0.667  -0.618  -0.581  -0.544  -0.528  -0.473
 -0.441  -0.421  -0.398  -0.371  -0.347  -0.314  -0.274  -0.269
 -0.196

 Beta MOs
 -- Occupied --
-14.331 -10.231 -10.230 -10.225 -10.220 -10.217 -10.199  -0.970
 -0.862  -0.747  -0.657  -0.612  -0.577  -0.542  -0.518  -0.470
 -0.435  -0.416  -0.394  -0.367  -0.335  -0.305  -0.269  -0.266

          Ground-State Mulliken Net Atomic Charges

     Atom                 Charge (a.u.)    Spin (a.u.)
  --------------------------------------------------------
      1 C                    -0.097483       0.044413
      2 C                    -0.093554       0.113758
      3 C                    -0.125840       0.059892
      4 C                    -0.071695       1.021662
      5 C                    -0.075616      -0.123439
      6 N                    -0.209980       0.028523
      7 H                     0.132492       0.004395
      8 H                     0.138049       0.001094
      9 H                     0.132591      -0.000564
     10 H                     0.130148      -0.023103
     11 H                     0.135707       0.019279
     12 C                    -0.135442      -0.150716
     13 H                     0.140622       0.004807
  --------------------------------------------------------
  Sum of atomic charges =    -0.000000

                    Cartesian Multipole Moments
 -----------------------------------------------------------------
    Charge (ESU x 10^10)
                -0.0000
    Dipole Moment (Debye)
         X      -0.3622      Y      -2.6321      Z       0.5994
       Tot       2.7236
    Quadrupole Moments (Debye-Ang)
        XX     -40.0876     XY      -2.9424     YY     -43.7340
        XZ       1.7152     YZ       1.6770     ZZ     -41.3208

 Total job time:  195.59s(wall), 193.43s(cpu)
        *  Thank you very much for using Q-Chem.  Have a nice day.  *
