 Q-Chem 5.0, Q-Chem, Inc., Pleasanton, CA (2017)
 Q-Chem 5.0.2 for Intel X86 EM64T Linux

User input:
--------------------------------------------------------------
$molecule
0 2
C        1.5196817895    0.3440739078   -0.2649461972
C        0.6224748319   -0.8939218341   -0.0647136388
C       -0.3953703744   -0.5206731519   -1.1472882853
C       -1.0023286462    0.5091940545    0.8086810719
C       -0.5861713701    0.8954094682   -0.6198733192
N        0.8530895815    1.3865087220   -0.5766345126
H        2.6004622616    0.3578332345   -0.1344527725
H        1.1022922546   -1.8726626952   -0.0767669264
H       -1.2213134024   -1.1742516431   -1.4232003148
H       -1.7271370039    1.0439991456    1.4125314193
H       -1.2321738086    1.5929355166   -1.1508801546
C       -0.2722119408   -0.5659090966    1.1475628476
H       -0.2612941731   -1.1025356283    2.0899807822
****
C        1.4634472714    0.2995955640   -0.7911101075
C        1.0988594007   -0.9937694383   -0.4647324744
C       -0.0964799067   -1.4397118758    0.2036773431
C       -1.2276448266    0.7715759993    0.5554921329
C       -0.3287949944    1.6583377556   -0.0057823792
N        0.8723779113    1.5030058167   -0.6122492020
H        2.4251608358    0.3887676499   -1.3013513074
H        1.8065893638   -1.7681087751   -0.7508283408
H       -0.1794325389   -2.5134016516    0.3602415170
H       -2.1269252218    1.2161704784    0.9752348445
H       -0.6304264634    2.7071094593    0.0395261345
C       -1.1218160504   -0.6624035273    0.6534049182
H       -1.9549147806   -1.1671674553    1.1384769211
$end

$rem
method                b3lyp
basis                 6-31g(d)
unrestricted          true
symmetry              off
sym_ignore            true
incdft                false
incfock               0
scf_convergence       8
thresh                14
jobtype               fsm
scf_guess             core
scf_guess_mix         5
scf_algorithm         diis
max_scf_cycles        100
fsm_nnode             21
fsm_ngrad             6
fsm_mode              2
fsm_opt_mode          2
$end

--------------------------------------------------------------

   21    -286.8516365108      6.29E-09 Convergence criterion met
 Total energy in the final basis set = -286.85163651
   22    -286.9243477233      6.86E-09 Convergence criterion met
 Total energy in the final basis set = -286.92434772
   21    -286.8449150186      2.94E-09 Convergence criterion met
 Total energy in the final basis set = -286.84491502
   20    -286.8471074185      9.19E-09 Convergence criterion met
 Total energy in the final basis set = -286.84710742
   23    -286.9201819344      6.52E-09 Convergence criterion met
 Total energy in the final basis set = -286.92018193
   22    -286.9154272162      4.60E-09 Convergence criterion met
 Total energy in the final basis set = -286.91542722
   23    -286.9218672557      6.23E-09 Convergence criterion met
 Total energy in the final basis set = -286.92186726
   21    -286.8334331611      6.47E-09 Convergence criterion met
 Total energy in the final basis set = -286.72582109
   34    -286.7259147835      6.88E-09 Convergence criterion met
 Total energy in the final basis set = -286.72591478
   30    -286.7261657607      7.54E-09 Convergence criterion met
 Total energy in the final basis set = -286.72616576
   34    -286.7256953046      9.32E-09 Convergence criterion met
 Total energy in the final basis set = -286.72569530
   30    -286.7262402527      3.96E-09 Convergence criterion met
 Total energy in the final basis set = -286.72624025
   41    -286.7256784667      2.96E-09 Convergence criterion met
 Total energy in the final basis set = -286.72567847
   30    -286.7262487783      2.06E-09 Convergence criterion met
 Total energy in the final basis set = -286.72624878
   38    -286.7257350555      5.37E-09 Convergence criterion met
 Total energy in the final basis set = -286.72573506

                    Orbital Energies (a.u.)
 --------------------------------------------------------------

 Alpha MOs
 -- Occupied --
-14.332 -10.247 -10.233 -10.232 -10.230 -10.204 -10.194  -0.948
 -0.818  -0.760  -0.671  -0.614  -0.566  -0.527  -0.493  -0.451
 -0.435  -0.407  -0.391  -0.373  -0.331  -0.293  -0.265  -0.260
 -0.137

 Beta MOs
 -- Occupied --
-14.331 -10.249 -10.235 -10.232 -10.230 -10.189 -10.189  -0.947
 -0.810  -0.755  -0.667  -0.607  -0.554  -0.524  -0.488  -0.447
 -0.432  -0.403  -0.388  -0.371  -0.317  -0.284  -0.264  -0.246

          Ground-State Mulliken Net Atomic Charges

     Atom                 Charge (a.u.)    Spin (a.u.)
  --------------------------------------------------------
      1 C                     0.113568      -0.022699
      2 C                    -0.238498      -0.021618
      3 C                    -0.208936       0.975893
      4 C                    -0.083869       0.394446
      5 C                    -0.038212      -0.143925
      6 N                    -0.329000       0.018027
      7 H                     0.154295       0.001450
      8 H                     0.150091       0.019270
      9 H                     0.147156      -0.039913
     10 H                     0.151606      -0.021743
     11 H                     0.147202       0.007229
     12 C                    -0.125922      -0.182029
     13 H                     0.160518       0.015614
  --------------------------------------------------------
  Sum of atomic charges =     0.000000

                    Cartesian Multipole Moments
 -----------------------------------------------------------------
    Charge (ESU x 10^10)
                 0.0000
    Dipole Moment (Debye)
         X      -0.4955      Y      -1.6605      Z       1.2384
       Tot       2.1299
    Quadrupole Moments (Debye-Ang)
        XX     -37.2800     XY      -3.6238     YY     -41.0563
        XZ      -2.2328     YZ       0.0591     ZZ     -43.2257

             Standard Nuclear Orientation (Angstroms)
    I     Atom           X                Y                Z
 ----------------------------------------------------------------
    1      C       1.5704420212     0.3534991138    -0.3749217232
    2      C       0.7839699735    -0.8593715991    -0.0743412597
    3      C      -0.4177648196    -0.7293816510    -0.9613536173
    4      C      -1.0022496661     0.5992226441     0.8119693617
    5      C      -0.5248644479     1.0770219030    -0.4967115632
    6      N       0.8521267963     1.3925154898    -0.6273094286
    7      H       2.6500705813     0.3749393566    -0.5568802738
    8      H       1.3979501211    -1.7798086592    -0.1744263919
    9      H      -1.0748693472    -1.6079504791    -1.0275324497
   10      H      -1.8712178175     1.0607399705     1.3064144002
   11      H      -1.1055124946     1.9013113160    -0.9165708912
   12      C      -0.4224097634    -0.5824441210     1.1241518971
   13      H      -0.8966110296    -1.2330622277     1.8754243415
 ----------------------------------------------------------------

 Total job time:  1025.41s(wall), 3817.14s(cpu)
        *  Thank you very much for using Q-Chem.  Have a nice day.  *
