 Q-Chem 5.0, Q-Chem, Inc., Pleasanton, CA (2017)
 Q-Chem 5.0.2 for Intel X86 EM64T Linux

User input:
--------------------------------------------------------------
$molecule
0 2
C        1.5388313197    0.3789259007   -0.3299948374
C        0.7235392996   -0.8602288689   -0.0499342522
C       -0.5139097215   -0.6174209189   -0.8537951837
C       -0.9428960074    0.6608279747    0.8701247978
C       -0.6009942705    0.9063957213   -0.5955556917
N        0.8195038946    1.3844860437   -0.6684043318
H        2.6174278452    0.4524857309   -0.2082866511
H        1.1920590016   -1.8411206606   -0.0292807731
H       -1.1550805908   -1.2992740126   -1.3932209772
H       -1.5753212047    1.2171705622    1.5466366547
H       -1.2738286022    1.5259001449   -1.1854798125
C       -0.3495880832   -0.6015511262    1.0152352154
H       -0.5406827729   -1.3393654345    1.7898682449
$end

$rem
method                b3lyp
basis                 6-31+g(d,p)
unrestricted          true
symmetry              off
sym_ignore            true
incdft                false
incfock               0
scf_convergence       8
thresh                14
jobtype               rpath
scf_guess             core
scf_guess_mix         5
scf_algorithm         diis
max_scf_cycles        100
rpath_direction       1
rpath_tol_displacement 1000
rpath_max_cycles      50
geom_opt_max_cycles   300
geom_opt_hessian      read
$end

--------------------------------------------------------------

   24    -286.8438154602      5.79E-09 Convergence criterion met
 Total energy in the final basis set = -286.84381546
   23    -286.8457083079      6.76E-09 Convergence criterion met
 Total energy in the final basis set = -286.84570831
   23    -286.8456745055      6.56E-09 Convergence criterion met
 Total energy in the final basis set = -286.84567451
   23    -286.8457123522      6.63E-09 Convergence criterion met
 Total energy in the final basis set = -286.84571235
   23    -286.8496806496      9.33E-09 Convergence criterion met
 Total energy in the final basis set = -286.84968065
   23    -286.8495610868      8.91E-09 Convergence criterion met
 Total energy in the final basis set = -286.84956109
   23    -286.8496910452      9.97E-09 Convergence criterion met
 Total energy in the final basis set = -286.84969105
   23    -286.8533806878      7.55E-09 Convergence criterion met
 Total energy in the final basis set = -286.87327418
   21    -286.8734716902      6.23E-09 Convergence criterion met
 Total energy in the final basis set = -286.87347169
   22    -286.8733344256      7.30E-09 Convergence criterion met
 Total energy in the final basis set = -286.87333443
   21    -286.8734810632      5.94E-09 Convergence criterion met
 Total energy in the final basis set = -286.87348106
   22    -286.8669600593      5.98E-09 Convergence criterion met
 Total energy in the final basis set = -286.86696006
   21    -286.8734819570      5.87E-09 Convergence criterion met
 Total energy in the final basis set = -286.87348196
   21    -286.8734819050      5.88E-09 Convergence criterion met
 Total energy in the final basis set = -286.87348191
   21    -286.8734821169      5.87E-09 Convergence criterion met
 Total energy in the final basis set = -286.87348212

                    Orbital Energies (a.u.)
 --------------------------------------------------------------

 Alpha MOs
 -- Occupied --
-14.337 -10.234 -10.231 -10.221 -10.216 -10.213 -10.209  -0.965
 -0.833  -0.737  -0.715  -0.589  -0.583  -0.539  -0.520  -0.481
 -0.429  -0.420  -0.391  -0.383  -0.358  -0.305  -0.283  -0.271
 -0.206

 Beta MOs
 -- Occupied --
-14.336 -10.235 -10.231 -10.221 -10.212 -10.208 -10.202  -0.961
 -0.827  -0.735  -0.700  -0.587  -0.571  -0.536  -0.517  -0.472
 -0.425  -0.416  -0.389  -0.380  -0.352  -0.298  -0.273  -0.268

          Ground-State Mulliken Net Atomic Charges

     Atom                 Charge (a.u.)    Spin (a.u.)
  --------------------------------------------------------
      1 C                    -0.091826      -0.030747
      2 C                     0.008502      -0.061122
      3 C                    -0.271190       1.034156
      4 C                    -0.146885       0.048258
      5 C                     0.023897      -0.089783
      6 N                    -0.202818       0.024823
      7 H                     0.137339      -0.000129
      8 H                     0.124681       0.003497
      9 H                     0.138942      -0.026051
     10 H                     0.138877       0.000615
     11 H                     0.129378       0.003589
     12 C                    -0.127485       0.092693
     13 H                     0.138588       0.000201
  --------------------------------------------------------
  Sum of atomic charges =    -0.000000

                    Cartesian Multipole Moments
 -----------------------------------------------------------------
    Charge (ESU x 10^10)
                -0.0000
    Dipole Moment (Debye)
         X      -0.7348      Y      -2.1333      Z       1.2829
       Tot       2.5955
    Quadrupole Moments (Debye-Ang)
        XX     -38.4244     XY      -4.5295     YY     -44.4311
        XZ       1.3243     YZ       0.6904     ZZ     -42.6296

             Standard Nuclear Orientation (Angstroms)
    I     Atom           X                Y                Z
 ----------------------------------------------------------------
    1      C       1.5388313197     0.3789259007    -0.3299948374
    2      C       0.7235392996    -0.8602288689    -0.0499342522
    3      C      -0.5139097215    -0.6174209189    -0.8537951837
    4      C      -0.9428960074     0.6608279747     0.8701247978
    5      C      -0.6009942705     0.9063957213    -0.5955556917
    6      N       0.8195038946     1.3844860437    -0.6684043318
    7      H       2.6174278452     0.4524857309    -0.2082866511
    8      H       1.1920590016    -1.8411206606    -0.0292807731
    9      H      -1.1550805908    -1.2992740126    -1.3932209772
   10      H      -1.5753212047     1.2171705622     1.5466366547
   11      H      -1.2738286022     1.5259001449    -1.1854798125
   12      C      -0.3495880832    -0.6015511262     1.0152352154
   13      H      -0.5406827729    -1.3393654345     1.7898682449
 ----------------------------------------------------------------

 Total job time:  9941.26s(wall), 38656.80s(cpu)
        *  Thank you very much for using Q-Chem.  Have a nice day.  *
