 Q-Chem 5.0, Q-Chem, Inc., Pleasanton, CA (2017)
 Q-Chem 5.0.2 for Intel X86 EM64T Linux

User input:
--------------------------------------------------------------
$molecule
0 2
C        1.4629484605    0.2996723053   -0.7918750363
C        1.0986505075   -0.9937212313   -0.4650932294
C       -0.0970096582   -1.4396112442    0.2028982483
C       -1.2273061996    0.7713911062    0.5557735790
C       -0.3287818779    1.6580387231   -0.0053682909
N        0.8719902540    1.5028071833   -0.6125140210
H        2.4253875089    0.3886458143   -1.3006651847
H        1.8071156735   -1.7677382196   -0.7502039795
H       -0.1790523155   -2.5131541553    0.3611347128
H       -2.1259249268    1.2166819695    0.9760708924
H       -0.6306107870    2.7066734920    0.0393456134
C       -1.1223441956   -0.6625062657    0.6524318172
H       -1.9550624436   -1.1671794777    1.1380648789
$end

$rem
method                b3lyp
basis                 6-31g(d)
unrestricted          true
symmetry              off
sym_ignore            true
incdft                false
incfock               0
scf_convergence       8
thresh                14
jobtype               opt
scf_guess             core
scf_guess_mix         5
scf_algorithm         diis
max_scf_cycles        100
geom_opt_max_cycles   300
$end

--------------------------------------------------------------

   23    -286.9243467336      2.99E-09 Convergence criterion met
 Total energy in the final basis set = -286.92434673

             Standard Nuclear Orientation (Angstroms)
    I     Atom           X                Y                Z
 ----------------------------------------------------------------
    1      C       1.4634472714     0.2995955640    -0.7911101075
    2      C       1.0988594007    -0.9937694383    -0.4647324744
    3      C      -0.0964799067    -1.4397118758     0.2036773431
    4      C      -1.2276448266     0.7715759993     0.5554921329
    5      C      -0.3287949944     1.6583377556    -0.0057823792
    6      N       0.8723779113     1.5030058167    -0.6122492020
    7      H       2.4251608358     0.3887676499    -1.3013513074
    8      H       1.8065893638    -1.7681087751    -0.7508283408
    9      H      -0.1794325389    -2.5134016516     0.3602415170
   10      H      -2.1269252218     1.2161704784     0.9752348445
   11      H      -0.6304264634     2.7071094593     0.0395261345
   12      C      -1.1218160504    -0.6624035273     0.6534049182
   13      H      -1.9549147806    -1.1671674553     1.1384769211
 ----------------------------------------------------------------

   18    -286.9243475524      2.99E-09 Convergence criterion met
 Total energy in the final basis set = -286.92434755
 Final energy is   -286.924347552380
 **  OPTIMIZATION CONVERGED  **

                    Orbital Energies (a.u.)
 --------------------------------------------------------------

 Alpha MOs
 -- Occupied --
-14.322 -10.232 -10.232 -10.212 -10.211 -10.201 -10.200  -0.922
 -0.818  -0.784  -0.693  -0.667  -0.551  -0.537  -0.518  -0.449
 -0.439  -0.414  -0.394  -0.386  -0.349  -0.322  -0.299  -0.251
 -0.162

 Beta MOs
 -- Occupied --
-14.314 -10.233 -10.233 -10.210 -10.210 -10.196 -10.196  -0.911
 -0.809  -0.777  -0.681  -0.665  -0.546  -0.535  -0.514  -0.447
 -0.438  -0.411  -0.383  -0.373  -0.348  -0.295  -0.276  -0.241

          Ground-State Mulliken Net Atomic Charges

     Atom                 Charge (a.u.)    Spin (a.u.)
  --------------------------------------------------------
      1 C                     0.036345      -0.114996
      2 C                    -0.132031       0.351025
      3 C                    -0.110787       0.088617
      4 C                    -0.131158       0.342991
      5 C                     0.035074      -0.110216
      6 N                    -0.423421       0.386811
      7 H                     0.142540       0.003520
      8 H                     0.134297      -0.018520
      9 H                     0.142000      -0.006392
     10 H                     0.134430      -0.018149
     11 H                     0.142664       0.003282
     12 C                    -0.111865       0.098912
     13 H                     0.141913      -0.006885
  --------------------------------------------------------
  Sum of atomic charges =    -0.000000

                    Cartesian Multipole Moments
 -----------------------------------------------------------------
    Charge (ESU x 10^10)
                -0.0000
    Dipole Moment (Debye)
         X      -1.0625      Y      -1.8306      Z       0.7442
       Tot       2.2436
    Quadrupole Moments (Debye-Ang)
        XX     -38.0028     XY      -3.5081     YY     -39.7353
        XZ      -2.4112     YZ       1.4374     ZZ     -42.2614

 Total job time:  31.79s(wall), 112.51s(cpu)
        *  Thank you very much for using Q-Chem.  Have a nice day.  *
