 Q-Chem 5.0, Q-Chem, Inc., Pleasanton, CA (2017)
 Q-Chem 5.0.2 for Intel X86 EM64T Linux

User input:
--------------------------------------------------------------
$molecule
0 2
C        1.5704420212    0.3534991138   -0.3749217232
C        0.7839699735   -0.8593715991   -0.0743412597
C       -0.4177648196   -0.7293816510   -0.9613536173
C       -1.0022496661    0.5992226441    0.8119693617
C       -0.5248644479    1.0770219030   -0.4967115632
N        0.8521267963    1.3925154898   -0.6273094286
H        2.6500705813    0.3749393566   -0.5568802738
H        1.3979501211   -1.7798086592   -0.1744263919
H       -1.0748693472   -1.6079504791   -1.0275324497
H       -1.8712178175    1.0607399705    1.3064144002
H       -1.1055124946    1.9013113160   -0.9165708912
C       -0.4224097634   -0.5824441210    1.1241518971
H       -0.8966110296   -1.2330622277    1.8754243415
$end

$rem
method                b3lyp
basis                 6-31g(d)
unrestricted          true
symmetry              off
sym_ignore            true
incdft                false
incfock               0
scf_convergence       8
thresh                14
jobtype               sp
scf_guess             core
scf_guess_mix         5
scf_algorithm         diis
max_scf_cycles        100
$end

--------------------------------------------------------------

             Standard Nuclear Orientation (Angstroms)
    I     Atom           X                Y                Z
 ----------------------------------------------------------------
    1      C       1.5704420212     0.3534991138    -0.3749217232
    2      C       0.7839699735    -0.8593715991    -0.0743412597
    3      C      -0.4177648196    -0.7293816510    -0.9613536173
    4      C      -1.0022496661     0.5992226441     0.8119693617
    5      C      -0.5248644479     1.0770219030    -0.4967115632
    6      N       0.8521267963     1.3925154898    -0.6273094286
    7      H       2.6500705813     0.3749393566    -0.5568802738
    8      H       1.3979501211    -1.7798086592    -0.1744263919
    9      H      -1.0748693472    -1.6079504791    -1.0275324497
   10      H      -1.8712178175     1.0607399705     1.3064144002
   11      H      -1.1055124946     1.9013113160    -0.9165708912
   12      C      -0.4224097634    -0.5824441210     1.1241518971
   13      H      -0.8966110296    -1.2330622277     1.8754243415
 ----------------------------------------------------------------

   23    -286.7682640308      6.83E-09 Convergence criterion met
 Total energy in the final basis set = -286.76826403

                    Orbital Energies (a.u.)
 --------------------------------------------------------------

 Alpha MOs
 -- Occupied --
-14.323 -10.236 -10.226 -10.225 -10.222 -10.207 -10.199  -0.951
 -0.820  -0.755  -0.673  -0.608  -0.571  -0.528  -0.497  -0.458
 -0.434  -0.409  -0.390  -0.376  -0.332  -0.292  -0.273  -0.258
 -0.145

 Beta MOs
 -- Occupied --
-14.323 -10.237 -10.226 -10.226 -10.222 -10.195 -10.193  -0.950
 -0.812  -0.751  -0.665  -0.603  -0.559  -0.525  -0.494  -0.453
 -0.430  -0.405  -0.387  -0.374  -0.320  -0.281  -0.266  -0.248

          Ground-State Mulliken Net Atomic Charges

     Atom                 Charge (a.u.)    Spin (a.u.)
  --------------------------------------------------------
      1 C                     0.109506      -0.012163
      2 C                    -0.240984      -0.032845
      3 C                    -0.169462       0.929494
      4 C                    -0.074729       0.256201
      5 C                    -0.064057      -0.057819
      6 N                    -0.326217       0.012349
      7 H                     0.153587       0.000799
      8 H                     0.146343       0.006810
      9 H                     0.144474      -0.035209
     10 H                     0.152910      -0.014131
     11 H                     0.143469       0.001129
     12 C                    -0.127504      -0.068592
     13 H                     0.152665       0.013978
  --------------------------------------------------------
  Sum of atomic charges =     0.000000

                    Cartesian Multipole Moments
 -----------------------------------------------------------------
    Charge (ESU x 10^10)
                 0.0000
    Dipole Moment (Debye)
         X      -0.7282      Y      -1.7991      Z       1.2441
       Tot       2.3054
    Quadrupole Moments (Debye-Ang)
        XX     -36.7497     XY      -3.6689     YY     -41.4404
        XZ      -1.4197     YZ       0.4159     ZZ     -43.3145

 Total job time:  15.49s(wall), 57.00s(cpu)
        *  Thank you very much for using Q-Chem.  Have a nice day.  *
