 Q-Chem 5.0, Q-Chem, Inc., Pleasanton, CA (2017)
 Q-Chem 5.0.2 for Intel X86 EM64T Linux

User input:
--------------------------------------------------------------
$molecule
0 2
C        1.5388313197    0.3789259007   -0.3299948374
C        0.7235392996   -0.8602288689   -0.0499342522
C       -0.5139097215   -0.6174209189   -0.8537951837
C       -0.9428960074    0.6608279747    0.8701247978
C       -0.6009942705    0.9063957213   -0.5955556917
N        0.8195038946    1.3844860437   -0.6684043318
H        2.6174278452    0.4524857309   -0.2082866511
H        1.1920590016   -1.8411206606   -0.0292807731
H       -1.1550805908   -1.2992740126   -1.3932209772
H       -1.5753212047    1.2171705622    1.5466366547
H       -1.2738286022    1.5259001449   -1.1854798125
C       -0.3495880832   -0.6015511262    1.0152352154
H       -0.5406827729   -1.3393654345    1.7898682449
$end

$rem
method                b3lyp
basis                 6-31+g(d,p)
unrestricted          true
symmetry              off
sym_ignore            true
incdft                false
incfock               0
scf_convergence       8
thresh                14
jobtype               freq
scf_guess             read
scf_algorithm         diis
max_scf_cycles        100
$end

--------------------------------------------------------------

             Standard Nuclear Orientation (Angstroms)
    I     Atom           X                Y                Z
 ----------------------------------------------------------------
    1      C       1.5388313197     0.3789259007    -0.3299948374
    2      C       0.7235392996    -0.8602288689    -0.0499342522
    3      C      -0.5139097215    -0.6174209189    -0.8537951837
    4      C      -0.9428960074     0.6608279747     0.8701247978
    5      C      -0.6009942705     0.9063957213    -0.5955556917
    6      N       0.8195038946     1.3844860437    -0.6684043318
    7      H       2.6174278452     0.4524857309    -0.2082866511
    8      H       1.1920590016    -1.8411206606    -0.0292807731
    9      H      -1.1550805908    -1.2992740126    -1.3932209772
   10      H      -1.5753212047     1.2171705622     1.5466366547
   11      H      -1.2738286022     1.5259001449    -1.1854798125
   12      C      -0.3495880832    -0.6015511262     1.0152352154
   13      H      -0.5406827729    -1.3393654345     1.7898682449
 ----------------------------------------------------------------

    2    -286.8438154603      3.26E-10 Convergence criterion met
 Total energy in the final basis set = -286.84381546

                    Orbital Energies (a.u.)
 --------------------------------------------------------------

 Alpha MOs
 -- Occupied --
-14.334 -10.234 -10.231 -10.228 -10.225 -10.222 -10.199  -0.969
 -0.850  -0.750  -0.690  -0.601  -0.587  -0.546  -0.524  -0.474
 -0.436  -0.418  -0.409  -0.387  -0.351  -0.307  -0.286  -0.266
 -0.152

 Beta MOs
 -- Occupied --
-14.334 -10.236 -10.232 -10.228 -10.225 -10.214 -10.189  -0.965
 -0.844  -0.743  -0.680  -0.597  -0.577  -0.544  -0.516  -0.469
 -0.432  -0.413  -0.407  -0.385  -0.346  -0.291  -0.277  -0.262

          Ground-State Mulliken Net Atomic Charges

     Atom                 Charge (a.u.)    Spin (a.u.)
  --------------------------------------------------------
      1 C                    -0.063837       0.042462
      2 C                    -0.016673      -0.032530
      3 C                    -0.278416       0.641352
      4 C                    -0.133662       0.738275
      5 C                     0.016285      -0.123877
      6 N                    -0.207604      -0.003033
      7 H                     0.134935       0.001340
      8 H                     0.131551       0.003600
      9 H                     0.147320      -0.028085
     10 H                     0.138781      -0.030248
     11 H                     0.130433       0.008307
     12 C                    -0.139645      -0.230193
     13 H                     0.140532       0.012629
  --------------------------------------------------------
  Sum of atomic charges =    -0.000000

                    Cartesian Multipole Moments
 -----------------------------------------------------------------
    Charge (ESU x 10^10)
                 0.0000
    Dipole Moment (Debye)
         X      -0.6701      Y      -2.7628      Z       0.7639
       Tot       2.9438
    Quadrupole Moments (Debye-Ang)
        XX     -39.1789     XY      -3.8978     YY     -44.1096
        XZ       1.4030     YZ       0.7854     ZZ     -42.0886

 Frequency:      -745.52                 263.93                 350.01
 Force Cnst:      1.7903                 0.0486                 0.0762
 Red. Mass:       5.4670                 1.1843                 1.0559
 IR Intens:       59.606                 16.283                 36.602
 Frequency:       449.53                 475.67                 590.42
 Force Cnst:      0.5604                 0.5290                 0.7574
 Red. Mass:       4.7072                 3.9680                 3.6875
 IR Intens:        6.991                 10.431                  3.708
 Frequency:       716.66                 783.24                 809.95
 Force Cnst:      2.0603                 1.8162                 0.8886
 Red. Mass:       6.8085                 5.0248                 2.2990
 IR Intens:        0.647                  5.860                  5.749
 Frequency:       857.14                 873.89                 896.54
 Force Cnst:      1.2848                 1.1355                 0.8758
 Red. Mass:       2.9681                 2.5237                 1.8493
 IR Intens:        5.035                 25.382                  4.729
 Frequency:       908.55                 919.91                 939.92
 Force Cnst:      0.8871                 1.1399                 1.1171
 Red. Mass:       1.8241                 2.2863                 2.1462
 IR Intens:       11.128                  9.408                  2.740
 Frequency:       961.26                1023.68                1083.56
 Force Cnst:      0.8954                 1.0808                 1.1627
 Red. Mass:       1.6447                 1.7505                 1.6808
 IR Intens:        7.244                  6.075                  5.547
 Frequency:      1137.82                1181.61                1217.28
 Force Cnst:      1.3224                 1.7883                 1.1845
 Red. Mass:       1.7337                 2.1739                 1.3567
 IR Intens:        4.909                  5.282                  1.726
 Frequency:      1261.16                1280.62                1305.93
 Force Cnst:      1.1502                 1.3882                 2.0051
 Red. Mass:       1.2274                 1.4367                 1.9954
 IR Intens:        1.155                  3.591                 14.728
 Frequency:      1320.53                1403.38                1643.32
 Force Cnst:      1.6129                 3.0431                12.5102
 Red. Mass:       1.5699                 2.6225                 7.8627
 IR Intens:       20.280                  1.963                 26.713
 Frequency:      3161.55                3171.07                3183.61
 Force Cnst:      6.4222                 6.4569                 6.5336
 Red. Mass:       1.0905                 1.0898                 1.0941
 IR Intens:       23.037                  6.823                 16.586
 Frequency:      3190.71                3266.46                3273.46
 Force Cnst:      6.5570                 6.8817                 6.9220
 Red. Mass:       1.0931                 1.0947                 1.0964
 IR Intens:       17.799                  0.482                  0.728

 STANDARD THERMODYNAMIC QUANTITIES AT   298.15 K  AND     1.00 ATM

   This Molecule has  1 Imaginary Frequencies
   Zero point vibrational energy:       62.762 kcal/mol

   Atom    1 Element C  Has Mass   12.00000
   Atom    2 Element C  Has Mass   12.00000
   Atom    3 Element C  Has Mass   12.00000
   Atom    4 Element C  Has Mass   12.00000
   Atom    5 Element C  Has Mass   12.00000
   Atom    6 Element N  Has Mass   14.00307
   Atom    7 Element H  Has Mass    1.00783
   Atom    8 Element H  Has Mass    1.00783
   Atom    9 Element H  Has Mass    1.00783
   Atom   10 Element H  Has Mass    1.00783
   Atom   11 Element H  Has Mass    1.00783
   Atom   12 Element C  Has Mass   12.00000
   Atom   13 Element H  Has Mass    1.00783
   Molecular Mass:    92.050050 amu
   Principal axes and moments of inertia in amu*Bohr^2:
                             1           2           3
    Eigenvalues --      377.30264   457.88348   570.62297
          X               0.75692    -0.53145     0.38031
          Y               0.42954     0.84317     0.32336
          Z              -0.49251    -0.08140     0.86649
   Rotational Symmetry Number is   1
   The Molecule is an Asymmetric Top
   Translational Enthalpy:        0.889 kcal/mol
   Rotational Enthalpy:           0.889 kcal/mol
   Vibrational Enthalpy:         64.209 kcal/mol
   gas constant (RT):             0.592 kcal/mol
   Translational Entropy:        39.471  cal/mol.K
   Rotational Entropy:           26.091  cal/mol.K
   Vibrational Entropy:           6.875  cal/mol.K

   Total Enthalpy:               66.579 kcal/mol
   Total Entropy:                72.437  cal/mol.K

 Total job time:  560.24s(wall), 557.70s(cpu)
        *  Thank you very much for using Q-Chem.  Have a nice day.  *
