 Q-Chem 5.0, Q-Chem, Inc., Pleasanton, CA (2017)
 Q-Chem 5.0.2 for Intel X86 EM64T Linux

User input:
--------------------------------------------------------------
$molecule
0 2
C        1.5388313197    0.3789259007   -0.3299948374
C        0.7235392996   -0.8602288689   -0.0499342522
C       -0.5139097215   -0.6174209189   -0.8537951837
C       -0.9428960074    0.6608279747    0.8701247978
C       -0.6009942705    0.9063957213   -0.5955556917
N        0.8195038946    1.3844860437   -0.6684043318
H        2.6174278452    0.4524857309   -0.2082866511
H        1.1920590016   -1.8411206606   -0.0292807731
H       -1.1550805908   -1.2992740126   -1.3932209772
H       -1.5753212047    1.2171705622    1.5466366547
H       -1.2738286022    1.5259001449   -1.1854798125
C       -0.3495880832   -0.6015511262    1.0152352154
H       -0.5406827729   -1.3393654345    1.7898682449
$end

$rem
method                b3lyp
basis                 6-31+g(d,p)
unrestricted          true
symmetry              off
sym_ignore            true
incdft                false
incfock               0
scf_convergence       6
thresh                14
jobtype               sp
scf_guess             read
scf_algorithm         diis
max_scf_cycles        100
stability_analysis    true
max_cis_cycles        100
cis_n_roots           4
$end

--------------------------------------------------------------

             Standard Nuclear Orientation (Angstroms)
    I     Atom           X                Y                Z
 ----------------------------------------------------------------
    1      C       1.5388313197     0.3789259007    -0.3299948374
    2      C       0.7235392996    -0.8602288689    -0.0499342522
    3      C      -0.5139097215    -0.6174209189    -0.8537951837
    4      C      -0.9428960074     0.6608279747     0.8701247978
    5      C      -0.6009942705     0.9063957213    -0.5955556917
    6      N       0.8195038946     1.3844860437    -0.6684043318
    7      H       2.6174278452     0.4524857309    -0.2082866511
    8      H       1.1920590016    -1.8411206606    -0.0292807731
    9      H      -1.1550805908    -1.2992740126    -1.3932209772
   10      H      -1.5753212047     1.2171705622     1.5466366547
   11      H      -1.2738286022     1.5259001449    -1.1854798125
   12      C      -0.3495880832    -0.6015511262     1.0152352154
   13      H      -0.5406827729    -1.3393654345     1.7898682449
 ----------------------------------------------------------------

    2    -286.8438154603      4.48E-10 Convergence criterion met
 Total energy in the final basis set = -286.84381546

         TDDFT/TDA Excitation Energies
 ---------------------------------------------------

 Excited state   1: excitation energy (eV) =    2.2557
 Total energy for state  1:                  -286.76092022 au
    <S**2>     :  0.7812
    Trans. Mom.:  0.1537 X   0.2944 Y   0.2202 Z
    Strength   :     0.0087752319
    S(  1) --> V(  1) amplitude =  0.9559 alpha
    S(  1) --> V(  2) amplitude = -0.2059 alpha

 Excited state   2: excitation energy (eV) =    2.6893
 Total energy for state  2:                  -286.74498534 au
    <S**2>     :  0.7831
    Trans. Mom.:  0.3068 X  -0.0404 Y  -0.3291 Z
    Strength   :     0.0134439483
    S(  1) --> V(  1) amplitude =  0.2369 alpha
    S(  1) --> V(  2) amplitude =  0.9402 alpha

 Excited state   3: excitation energy (eV) =    3.2415
 Total energy for state  3:                  -286.72469296 au
    <S**2>     :  0.7879
    Trans. Mom.: -0.0736 X  -0.0001 Y  -0.2574 Z
    Strength   :     0.0056914455
    S(  1) --> V(  3) amplitude =  0.9830 alpha

 Excited state   4: excitation energy (eV) =    3.8688
 Total energy for state  4:                  -286.70163885 au
    <S**2>     :  0.7877
    Trans. Mom.: -0.0291 X  -0.1036 Y  -0.0569 Z
    Strength   :     0.0014045621
    S(  1) --> V(  4) amplitude =  0.9551 alpha
    S(  1) --> V(  5) amplitude = -0.2440 alpha

 ---------------------------------------------------

                    Orbital Energies (a.u.)
 --------------------------------------------------------------

 Alpha MOs
 -- Occupied --
-14.334 -10.234 -10.231 -10.228 -10.225 -10.222 -10.199  -0.969
 -0.850  -0.750  -0.690  -0.601  -0.587  -0.546  -0.524  -0.474
 -0.436  -0.418  -0.409  -0.387  -0.351  -0.307  -0.286  -0.266
 -0.152

 Beta MOs
 -- Occupied --
-14.334 -10.236 -10.232 -10.228 -10.225 -10.214 -10.189  -0.965
 -0.844  -0.743  -0.680  -0.597  -0.577  -0.544  -0.516  -0.469
 -0.432  -0.413  -0.407  -0.385  -0.346  -0.291  -0.277  -0.262

          Ground-State Mulliken Net Atomic Charges

     Atom                 Charge (a.u.)    Spin (a.u.)
  --------------------------------------------------------
      1 C                    -0.063837       0.042463
      2 C                    -0.016673      -0.032530
      3 C                    -0.278416       0.641352
      4 C                    -0.133662       0.738275
      5 C                     0.016285      -0.123877
      6 N                    -0.207604      -0.003034
      7 H                     0.134935       0.001340
      8 H                     0.131551       0.003600
      9 H                     0.147320      -0.028085
     10 H                     0.138781      -0.030248
     11 H                     0.130433       0.008307
     12 C                    -0.139645      -0.230193
     13 H                     0.140532       0.012629
  --------------------------------------------------------
  Sum of atomic charges =     0.000000

                    Cartesian Multipole Moments
 -----------------------------------------------------------------
    Charge (ESU x 10^10)
                -0.0000
    Dipole Moment (Debye)
         X      -0.6701      Y      -2.7628      Z       0.7639
       Tot       2.9438
    Quadrupole Moments (Debye-Ang)
        XX     -39.1789     XY      -3.8978     YY     -44.1096
        XZ       1.4030     YZ       0.7854     ZZ     -42.0886

 Total job time:  198.46s(wall), 196.22s(cpu)
        *  Thank you very much for using Q-Chem.  Have a nice day.  *
