 Q-Chem 5.0, Q-Chem, Inc., Pleasanton, CA (2017)
 Q-Chem 5.0.2 for Intel X86 EM64T Linux

User input:
--------------------------------------------------------------
$molecule
0 2
C        1.5704420212    0.3534991138   -0.3749217232
C        0.7839699735   -0.8593715991   -0.0743412597
C       -0.4177648196   -0.7293816510   -0.9613536173
C       -1.0022496661    0.5992226441    0.8119693617
C       -0.5248644479    1.0770219030   -0.4967115632
N        0.8521267963    1.3925154898   -0.6273094286
H        2.6500705813    0.3749393566   -0.5568802738
H        1.3979501211   -1.7798086592   -0.1744263919
H       -1.0748693472   -1.6079504791   -1.0275324497
H       -1.8712178175    1.0607399705    1.3064144002
H       -1.1055124946    1.9013113160   -0.9165708912
C       -0.4224097634   -0.5824441210    1.1241518971
H       -0.8966110296   -1.2330622277    1.8754243415
$end

$rem
method                b3lyp
basis                 6-31g(d)
unrestricted          true
symmetry              off
sym_ignore            true
incdft                false
incfock               0
scf_convergence       8
thresh                14
jobtype               freq
scf_guess             read
scf_algorithm         diis
max_scf_cycles        100
$end

--------------------------------------------------------------

             Standard Nuclear Orientation (Angstroms)
    I     Atom           X                Y                Z
 ----------------------------------------------------------------
    1      C       1.5704420212     0.3534991138    -0.3749217232
    2      C       0.7839699735    -0.8593715991    -0.0743412597
    3      C      -0.4177648196    -0.7293816510    -0.9613536173
    4      C      -1.0022496661     0.5992226441     0.8119693617
    5      C      -0.5248644479     1.0770219030    -0.4967115632
    6      N       0.8521267963     1.3925154898    -0.6273094286
    7      H       2.6500705813     0.3749393566    -0.5568802738
    8      H       1.3979501211    -1.7798086592    -0.1744263919
    9      H      -1.0748693472    -1.6079504791    -1.0275324497
   10      H      -1.8712178175     1.0607399705     1.3064144002
   11      H      -1.1055124946     1.9013113160    -0.9165708912
   12      C      -0.4224097634    -0.5824441210     1.1241518971
   13      H      -0.8966110296    -1.2330622277     1.8754243415
 ----------------------------------------------------------------

    2    -286.7682640309      1.37E-09 Convergence criterion met
 Total energy in the final basis set = -286.76826403

                    Orbital Energies (a.u.)
 --------------------------------------------------------------

 Alpha MOs
 -- Occupied --
-14.323 -10.236 -10.226 -10.225 -10.222 -10.207 -10.199  -0.951
 -0.820  -0.755  -0.673  -0.608  -0.571  -0.528  -0.497  -0.458
 -0.434  -0.409  -0.390  -0.376  -0.332  -0.292  -0.273  -0.258
 -0.145

 Beta MOs
 -- Occupied --
-14.323 -10.237 -10.226 -10.226 -10.222 -10.195 -10.193  -0.950
 -0.812  -0.751  -0.665  -0.603  -0.559  -0.525  -0.494  -0.453
 -0.430  -0.405  -0.387  -0.374  -0.320  -0.281  -0.266  -0.248

          Ground-State Mulliken Net Atomic Charges

     Atom                 Charge (a.u.)    Spin (a.u.)
  --------------------------------------------------------
      1 C                     0.109506      -0.012148
      2 C                    -0.240984      -0.032847
      3 C                    -0.169463       0.929492
      4 C                    -0.074729       0.256201
      5 C                    -0.064057      -0.057815
      6 N                    -0.326217       0.012335
      7 H                     0.153587       0.000798
      8 H                     0.146343       0.006810
      9 H                     0.144474      -0.035209
     10 H                     0.152910      -0.014131
     11 H                     0.143469       0.001128
     12 C                    -0.127504      -0.068593
     13 H                     0.152665       0.013979
  --------------------------------------------------------
  Sum of atomic charges =     0.000000

                    Cartesian Multipole Moments
 -----------------------------------------------------------------
    Charge (ESU x 10^10)
                -0.0000
    Dipole Moment (Debye)
         X      -0.7282      Y      -1.7991      Z       1.2441
       Tot       2.3054
    Quadrupole Moments (Debye-Ang)
        XX     -36.7497     XY      -3.6689     YY     -41.4404
        XZ      -1.4197     YZ       0.4159     ZZ     -43.3145

 Frequency:      -449.26                -184.29                 361.40
 Force Cnst:      0.3934                 0.0854                 0.4191
 Red. Mass:       3.3085                 4.2658                 5.4468
 IR Intens:       32.788                 19.599                  4.713
 Frequency:       404.98                 451.18                 502.47
 Force Cnst:      0.4412                 0.2006                 0.3667
 Red. Mass:       4.5657                 1.6724                 2.4654
 IR Intens:        2.480                  4.059                 23.203
 Frequency:       594.42                 683.64                 727.04
 Force Cnst:      0.4916                 1.6544                 0.4272
 Red. Mass:       2.3616                 6.0082                 1.3716
 IR Intens:        8.243                  4.187                 34.235
 Frequency:       773.18                 898.39                 911.77
 Force Cnst:      1.6294                 1.8999                 0.6629
 Red. Mass:       4.6261                 3.9953                 1.3534
 IR Intens:        7.725                 10.486                  3.573
 Frequency:       918.31                 980.14                1024.02
 Force Cnst:      0.7065                 1.0446                 1.6427
 Red. Mass:       1.4220                 1.8456                 2.6588
 IR Intens:        8.554                  0.267                  8.482
 Frequency:      1047.24                1073.39                1102.42
 Force Cnst:      1.4606                 1.0594                 1.1073
 Red. Mass:       2.2604                 1.5605                 1.5464
 IR Intens:        8.322                 27.165                  3.582
 Frequency:      1124.53                1164.88                1198.89
 Force Cnst:      1.1055                 0.9771                 1.3253
 Red. Mass:       1.4838                 1.2222                 1.5650
 IR Intens:        4.674                  7.603                  3.291
 Frequency:      1295.58                1332.67                1378.30
 Force Cnst:      1.4479                 1.5042                 1.8455
 Red. Mass:       1.4641                 1.4375                 1.6488
 IR Intens:       19.000                 10.374                  7.016
 Frequency:      1383.91                1566.67                1648.63
 Force Cnst:      1.8934                 5.8582                11.0555
 Red. Mass:       1.6779                 4.0510                 6.9037
 IR Intens:       19.432                  5.034                 17.467
 Frequency:      2968.41                3062.38                3085.90
 Force Cnst:      5.6491                 5.9895                 6.1400
 Red. Mass:       1.0881                 1.0840                 1.0943
 IR Intens:       16.300                  1.614                 14.085
 Frequency:      3087.43                3128.76                3139.70
 Force Cnst:      6.1513                 6.3056                 6.3259
 Red. Mass:       1.0953                 1.0933                 1.0892
 IR Intens:       13.906                 23.877                 19.339

 STANDARD THERMODYNAMIC QUANTITIES AT   298.15 K  AND     1.00 ATM

   This Molecule has  2 Imaginary Frequencies
   Zero point vibrational energy:       61.501 kcal/mol

   Atom    1 Element C  Has Mass   12.00000
   Atom    2 Element C  Has Mass   12.00000
   Atom    3 Element C  Has Mass   12.00000
   Atom    4 Element C  Has Mass   12.00000
   Atom    5 Element C  Has Mass   12.00000
   Atom    6 Element N  Has Mass   14.00307
   Atom    7 Element H  Has Mass    1.00783
   Atom    8 Element H  Has Mass    1.00783
   Atom    9 Element H  Has Mass    1.00783
   Atom   10 Element H  Has Mass    1.00783
   Atom   11 Element H  Has Mass    1.00783
   Atom   12 Element C  Has Mass   12.00000
   Atom   13 Element H  Has Mass    1.00783
   Molecular Mass:    92.050050 amu
   Principal axes and moments of inertia in amu*Bohr^2:
                             1           2           3
    Eigenvalues --      387.50786   477.78746   619.88993
          X               0.77814    -0.43329     0.45471
          Y               0.36795     0.90119     0.22908
          Z              -0.50904    -0.01094     0.86068
   Rotational Symmetry Number is   1
   The Molecule is an Asymmetric Top
   Translational Enthalpy:        0.889 kcal/mol
   Rotational Enthalpy:           0.889 kcal/mol
   Vibrational Enthalpy:         62.772 kcal/mol
   gas constant (RT):             0.592 kcal/mol
   Translational Entropy:        39.471  cal/mol.K
   Rotational Entropy:           26.242  cal/mol.K
   Vibrational Entropy:           5.846  cal/mol.K

   Total Enthalpy:               65.142 kcal/mol
   Total Entropy:                71.559  cal/mol.K

 Total job time:  259.80s(wall), 258.53s(cpu)
        *  Thank you very much for using Q-Chem.  Have a nice day.  *
