 Q-Chem 5.0, Q-Chem, Inc., Pleasanton, CA (2017)
 Q-Chem 5.0.2 for Intel X86 EM64T Linux

User input:
--------------------------------------------------------------
$molecule
0 2
C        1.5354393401    0.3832944779   -0.3256694458
C        0.7245705370   -0.8602902258   -0.0513494538
C       -0.5067711270   -0.6177194884   -0.8644781985
C       -0.9515981836    0.6536513395    0.8625448319
C       -0.6016824958    0.9029894543   -0.5997538397
N        0.8179073632    1.3885105789   -0.6627838579
H        2.6140108667    0.4590111391   -0.1968424699
H        1.1961026439   -1.8403808695   -0.0300431970
H       -1.1684291520   -1.3021878851   -1.3745517282
H       -1.5498146592    1.2281879579    1.5559056306
H       -1.2730329984    1.5217166439   -1.1943562954
C       -0.3537749900   -0.6050373942    1.0073421467
H       -0.5438670375   -1.3445146718    1.7819482791
$end

$rem
method                b3lyp
basis                 6-31+g(d,p)
unrestricted          true
symmetry              off
sym_ignore            true
incdft                false
incfock               0
scf_convergence       8
thresh                14
jobtype               ts
scf_guess             read
scf_algorithm         diis
max_scf_cycles        100
geom_opt_max_cycles   500
geom_opt_dmax         100
geom_opt_tol_gradient 10
geom_opt_hessian      read
$end

--------------------------------------------------------------

    2    -286.8437772136      7.36E-10 Convergence criterion met
 Total energy in the final basis set = -286.84377721
   13    -286.8438068776      3.90E-09 Convergence criterion met
 Total energy in the final basis set = -286.84380688
   13    -286.8438153118      3.50E-09 Convergence criterion met
 Total energy in the final basis set = -286.84381531

             Standard Nuclear Orientation (Angstroms)
    I     Atom           X                Y                Z
 ----------------------------------------------------------------
    1      C       1.5388313197     0.3789259007    -0.3299948374
    2      C       0.7235392996    -0.8602288689    -0.0499342522
    3      C      -0.5139097215    -0.6174209189    -0.8537951837
    4      C      -0.9428960074     0.6608279747     0.8701247978
    5      C      -0.6009942705     0.9063957213    -0.5955556917
    6      N       0.8195038946     1.3844860437    -0.6684043318
    7      H       2.6174278452     0.4524857309    -0.2082866511
    8      H       1.1920590016    -1.8411206606    -0.0292807731
    9      H      -1.1550805908    -1.2992740126    -1.3932209772
   10      H      -1.5753212047     1.2171705622     1.5466366547
   11      H      -1.2738286022     1.5259001449    -1.1854798125
   12      C      -0.3495880832    -0.6015511262     1.0152352154
   13      H      -0.5406827729    -1.3393654345     1.7898682449
 ----------------------------------------------------------------

   10    -286.8438154603      4.48E-09 Convergence criterion met
 Total energy in the final basis set = -286.84381546
 Final energy is   -286.843815460314
 **  OPTIMIZATION CONVERGED  **

                    Orbital Energies (a.u.)
 --------------------------------------------------------------

 Alpha MOs
 -- Occupied --
-14.334 -10.234 -10.231 -10.228 -10.225 -10.222 -10.199  -0.969
 -0.850  -0.750  -0.690  -0.601  -0.587  -0.546  -0.524  -0.474
 -0.436  -0.418  -0.409  -0.387  -0.351  -0.307  -0.286  -0.266
 -0.152

 Beta MOs
 -- Occupied --
-14.334 -10.236 -10.232 -10.228 -10.225 -10.214 -10.189  -0.965
 -0.844  -0.743  -0.680  -0.597  -0.577  -0.544  -0.516  -0.469
 -0.432  -0.413  -0.407  -0.385  -0.346  -0.291  -0.277  -0.262

          Ground-State Mulliken Net Atomic Charges

     Atom                 Charge (a.u.)    Spin (a.u.)
  --------------------------------------------------------
      1 C                    -0.063837       0.042467
      2 C                    -0.016673      -0.032531
      3 C                    -0.278415       0.641352
      4 C                    -0.133662       0.738272
      5 C                     0.016285      -0.123876
      6 N                    -0.207604      -0.003038
      7 H                     0.134935       0.001340
      8 H                     0.131551       0.003600
      9 H                     0.147320      -0.028085
     10 H                     0.138781      -0.030248
     11 H                     0.130433       0.008307
     12 C                    -0.139645      -0.230190
     13 H                     0.140532       0.012629
  --------------------------------------------------------
  Sum of atomic charges =    -0.000000

                    Cartesian Multipole Moments
 -----------------------------------------------------------------
    Charge (ESU x 10^10)
                -0.0000
    Dipole Moment (Debye)
         X      -0.6702      Y      -2.7628      Z       0.7639
       Tot       2.9438
    Quadrupole Moments (Debye-Ang)
        XX     -39.1789     XY      -3.8978     YY     -44.1096
        XZ       1.4030     YZ       0.7854     ZZ     -42.0886

 Total job time:  69.96s(wall), 265.41s(cpu)
        *  Thank you very much for using Q-Chem.  Have a nice day.  *
