 Q-Chem 5.0, Q-Chem, Inc., Pleasanton, CA (2017)
 Q-Chem 5.0.2 for Intel X86 EM64T Linux

User input:
--------------------------------------------------------------
$molecule
0 2
C        1.5704420212    0.3534991138   -0.3749217232
C        0.7839699735   -0.8593715991   -0.0743412597
C       -0.4177648196   -0.7293816510   -0.9613536173
C       -1.0022496661    0.5992226441    0.8119693617
C       -0.5248644479    1.0770219030   -0.4967115632
N        0.8521267963    1.3925154898   -0.6273094286
H        2.6500705813    0.3749393566   -0.5568802738
H        1.3979501211   -1.7798086592   -0.1744263919
H       -1.0748693472   -1.6079504791   -1.0275324497
H       -1.8712178175    1.0607399705    1.3064144002
H       -1.1055124946    1.9013113160   -0.9165708912
C       -0.4224097634   -0.5824441210    1.1241518971
H       -0.8966110296   -1.2330622277    1.8754243415
$end

$rem
method                b3lyp
basis                 6-31g(d)
unrestricted          true
symmetry              off
sym_ignore            true
incdft                false
incfock               0
scf_convergence       8
thresh                14
jobtype               ts
scf_guess             read
scf_algorithm         diis
max_scf_cycles        100
geom_opt_max_cycles   500
geom_opt_dmax         100
geom_opt_tol_gradient 10
geom_opt_hessian      read
$end

--------------------------------------------------------------

    2    -286.7682640308      8.61E-10 Convergence criterion met
 Total energy in the final basis set = -286.76826403
   16    -286.7715804387      2.80E-09 Convergence criterion met
 Total energy in the final basis set = -286.77158044
   16    -286.7760374309      4.15E-09 Convergence criterion met
 Total energy in the final basis set = -286.77603743
   16    -286.7809020653      2.55E-09 Convergence criterion met
 Total energy in the final basis set = -286.78090207
   14    -286.7855284128      8.91E-09 Convergence criterion met
 Total energy in the final basis set = -286.78552841
   14    -286.7900337195      9.09E-09 Convergence criterion met
 Total energy in the final basis set = -286.79003372
   14    -286.7944053181      7.76E-09 Convergence criterion met
 Total energy in the final basis set = -286.79440532
   14    -286.7985954790      6.43E-09 Convergence criterion met
   11    -286.8208079911      4.55E-09 Convergence criterion met
 Total energy in the final basis set = -286.82080799
   12    -286.8207979938      6.56E-09 Convergence criterion met
 Total energy in the final basis set = -286.82079799
   11    -286.8208081669      8.50E-09 Convergence criterion met
 Total energy in the final basis set = -286.82080817
   10    -286.8208081689      6.95E-09 Convergence criterion met
 Total energy in the final basis set = -286.82080817
   13    -286.8208009903      3.33E-09 Convergence criterion met
 Total energy in the final basis set = -286.82080099
   13    -286.8208081786      4.18E-09 Convergence criterion met
 Total energy in the final basis set = -286.82080818

             Standard Nuclear Orientation (Angstroms)
    I     Atom           X                Y                Z
 ----------------------------------------------------------------
    1      C       1.5354393401     0.3832944779    -0.3256694458
    2      C       0.7245705370    -0.8602902258    -0.0513494538
    3      C      -0.5067711270    -0.6177194884    -0.8644781985
    4      C      -0.9515981836     0.6536513395     0.8625448319
    5      C      -0.6016824958     0.9029894543    -0.5997538397
    6      N       0.8179073632     1.3885105789    -0.6627838579
    7      H       2.6140108667     0.4590111391    -0.1968424699
    8      H       1.1961026439    -1.8403808695    -0.0300431970
    9      H      -1.1684291520    -1.3021878851    -1.3745517282
   10      H      -1.5498146592     1.2281879579     1.5559056306
   11      H      -1.2730329984     1.5217166439    -1.1943562954
   12      C      -0.3537749900    -0.6050373942     1.0073421467
   13      H      -0.5438670375    -1.3445146718     1.7819482791
 ----------------------------------------------------------------

    9    -286.8208081796      4.88E-09 Convergence criterion met
 Total energy in the final basis set = -286.82080818
 Final energy is   -286.820808179558
 **  OPTIMIZATION CONVERGED  **

                    Orbital Energies (a.u.)
 --------------------------------------------------------------

 Alpha MOs
 -- Occupied --
-14.318 -10.221 -10.220 -10.217 -10.214 -10.209 -10.186  -0.956
 -0.837  -0.739  -0.679  -0.591  -0.576  -0.536  -0.515  -0.463
 -0.425  -0.408  -0.397  -0.376  -0.341  -0.295  -0.273  -0.252
 -0.140

 Beta MOs
 -- Occupied --
-14.318 -10.224 -10.220 -10.216 -10.214 -10.200 -10.176  -0.952
 -0.832  -0.731  -0.669  -0.586  -0.567  -0.534  -0.507  -0.458
 -0.421  -0.403  -0.395  -0.374  -0.335  -0.279  -0.263  -0.248

          Ground-State Mulliken Net Atomic Charges

     Atom                 Charge (a.u.)    Spin (a.u.)
  --------------------------------------------------------
      1 C                     0.099586       0.045339
      2 C                    -0.199049       0.005037
      3 C                    -0.133048       0.603209
      4 C                    -0.077602       0.682940
      5 C                    -0.095693      -0.069531
      6 N                    -0.338671      -0.005297
      7 H                     0.144885       0.001448
      8 H                     0.142578       0.003559
      9 H                     0.158475      -0.031246
     10 H                     0.141190      -0.028659
     11 H                     0.139931       0.008217
     12 C                    -0.131379      -0.229358
     13 H                     0.148799       0.014341
  --------------------------------------------------------
  Sum of atomic charges =    -0.000000

                    Cartesian Multipole Moments
 -----------------------------------------------------------------
    Charge (ESU x 10^10)
                -0.0000
    Dipole Moment (Debye)
         X      -0.6542      Y      -2.5029      Z       0.7571
       Tot       2.6955
    Quadrupole Moments (Debye-Ang)
        XX     -38.2091     XY      -3.2419     YY     -42.3744
        XZ       1.2125     YZ       0.9715     ZZ     -40.4228

 Total job time:  458.53s(wall), 1729.67s(cpu)
        *  Thank you very much for using Q-Chem.  Have a nice day.  *
