 Q-Chem 5.0, Q-Chem, Inc., Pleasanton, CA (2017)
 Q-Chem 5.0.2 for Intel X86 EM64T Linux

User input:
--------------------------------------------------------------
$molecule
0 2
C        1.5354393401    0.3832944779   -0.3256694458
C        0.7245705370   -0.8602902258   -0.0513494538
C       -0.5067711270   -0.6177194884   -0.8644781985
C       -0.9515981836    0.6536513395    0.8625448319
C       -0.6016824958    0.9029894543   -0.5997538397
N        0.8179073632    1.3885105789   -0.6627838579
H        2.6140108667    0.4590111391   -0.1968424699
H        1.1961026439   -1.8403808695   -0.0300431970
H       -1.1684291520   -1.3021878851   -1.3745517282
H       -1.5498146592    1.2281879579    1.5559056306
H       -1.2730329984    1.5217166439   -1.1943562954
C       -0.3537749900   -0.6050373942    1.0073421467
H       -0.5438670375   -1.3445146718    1.7819482791
$end

$rem
method                b3lyp
basis                 6-31+g(d,p)
unrestricted          true
symmetry              off
sym_ignore            true
incdft                false
incfock               0
scf_convergence       6
thresh                14
jobtype               sp
scf_guess             read
scf_algorithm         diis
max_scf_cycles        100
stability_analysis    true
max_cis_cycles        100
cis_n_roots           4
$end

--------------------------------------------------------------

             Standard Nuclear Orientation (Angstroms)
    I     Atom           X                Y                Z
 ----------------------------------------------------------------
    1      C       1.5354393401     0.3832944779    -0.3256694458
    2      C       0.7245705370    -0.8602902258    -0.0513494538
    3      C      -0.5067711270    -0.6177194884    -0.8644781985
    4      C      -0.9515981836     0.6536513395     0.8625448319
    5      C      -0.6016824958     0.9029894543    -0.5997538397
    6      N       0.8179073632     1.3885105789    -0.6627838579
    7      H       2.6140108667     0.4590111391    -0.1968424699
    8      H       1.1961026439    -1.8403808695    -0.0300431970
    9      H      -1.1684291520    -1.3021878851    -1.3745517282
   10      H      -1.5498146592     1.2281879579     1.5559056306
   11      H      -1.2730329984     1.5217166439    -1.1943562954
   12      C      -0.3537749900    -0.6050373942     1.0073421467
   13      H      -0.5438670375    -1.3445146718     1.7819482791
 ----------------------------------------------------------------

    2    -286.8437772136      3.82E-09 Convergence criterion met
 Total energy in the final basis set = -286.84377721

         TDDFT/TDA Excitation Energies
 ---------------------------------------------------

 Excited state   1: excitation energy (eV) =    2.2529
 Total energy for state  1:                  -286.76098481 au
    <S**2>     :  0.7801
    Trans. Mom.:  0.1450 X   0.2970 Y   0.2335 Z
    Strength   :     0.0090394399
    S(  1) --> V(  1) amplitude =  0.9574 alpha
    S(  1) --> V(  2) amplitude =  0.1944 alpha

 Excited state   2: excitation energy (eV) =    2.7138
 Total energy for state  2:                  -286.74404662 au
    <S**2>     :  0.7846
    Trans. Mom.: -0.3203 X   0.0267 Y   0.3230 Z
    Strength   :     0.0138064884
    S(  1) --> V(  1) amplitude = -0.2261 alpha
    S(  1) --> V(  2) amplitude =  0.9425 alpha

 Excited state   3: excitation energy (eV) =    3.2562
 Total energy for state  3:                  -286.72411243 au
    <S**2>     :  0.7883
    Trans. Mom.: -0.0829 X   0.0040 Y  -0.2546 Z
    Strength   :     0.0057222833
    S(  1) --> V(  3) amplitude =  0.9821 alpha

 Excited state   4: excitation energy (eV) =    3.8835
 Total energy for state  4:                  -286.70106002 au
    <S**2>     :  0.7883
    Trans. Mom.: -0.0347 X  -0.0979 Y  -0.0538 Z
    Strength   :     0.0013019080
    S(  1) --> V(  4) amplitude =  0.9583 alpha
    S(  1) --> V(  5) amplitude = -0.2303 alpha

 ---------------------------------------------------

                    Orbital Energies (a.u.)
 --------------------------------------------------------------

 Alpha MOs
 -- Occupied --
-14.334 -10.233 -10.231 -10.228 -10.226 -10.222 -10.199  -0.969
 -0.850  -0.750  -0.690  -0.601  -0.587  -0.546  -0.524  -0.475
 -0.435  -0.419  -0.409  -0.386  -0.352  -0.307  -0.286  -0.266
 -0.153

 Beta MOs
 -- Occupied --
-14.334 -10.236 -10.232 -10.228 -10.225 -10.214 -10.190  -0.966
 -0.845  -0.743  -0.680  -0.597  -0.578  -0.543  -0.516  -0.469
 -0.431  -0.414  -0.407  -0.384  -0.346  -0.292  -0.276  -0.262

          Ground-State Mulliken Net Atomic Charges

     Atom                 Charge (a.u.)    Spin (a.u.)
  --------------------------------------------------------
      1 C                    -0.063454       0.042297
      2 C                    -0.022316      -0.028358
      3 C                    -0.277219       0.641179
      4 C                    -0.140698       0.735403
      5 C                     0.021739      -0.124463
      6 N                    -0.208120      -0.002396
      7 H                     0.134759       0.001282
      8 H                     0.131593       0.004006
      9 H                     0.148899      -0.029126
     10 H                     0.138317      -0.028075
     11 H                     0.130618       0.009005
     12 C                    -0.134378      -0.234022
     13 H                     0.140261       0.013270
  --------------------------------------------------------
  Sum of atomic charges =    -0.000000

                    Cartesian Multipole Moments
 -----------------------------------------------------------------
    Charge (ESU x 10^10)
                -0.0000
    Dipole Moment (Debye)
         X      -0.6491      Y      -2.7450      Z       0.7988
       Tot       2.9316
    Quadrupole Moments (Debye-Ang)
        XX     -39.2677     XY      -3.8204     YY     -44.0522
        XZ       1.4490     YZ       0.8111     ZZ     -42.1104

 Total job time:  202.18s(wall), 199.43s(cpu)
        *  Thank you very much for using Q-Chem.  Have a nice day.  *
