 Q-Chem 5.0, Q-Chem, Inc., Pleasanton, CA (2017)
 Q-Chem 5.0.2 for Intel X86 EM64T Linux

User input:
--------------------------------------------------------------
$molecule
0 2
C        1.5354393401    0.3832944779   -0.3256694458
C        0.7245705370   -0.8602902258   -0.0513494538
C       -0.5067711270   -0.6177194884   -0.8644781985
C       -0.9515981836    0.6536513395    0.8625448319
C       -0.6016824958    0.9029894543   -0.5997538397
N        0.8179073632    1.3885105789   -0.6627838579
H        2.6140108667    0.4590111391   -0.1968424699
H        1.1961026439   -1.8403808695   -0.0300431970
H       -1.1684291520   -1.3021878851   -1.3745517282
H       -1.5498146592    1.2281879579    1.5559056306
H       -1.2730329984    1.5217166439   -1.1943562954
C       -0.3537749900   -0.6050373942    1.0073421467
H       -0.5438670375   -1.3445146718    1.7819482791
$end

$rem
method                b3lyp
basis                 6-31g(d)
unrestricted          true
symmetry              off
sym_ignore            true
incdft                false
incfock               0
scf_convergence       6
thresh                14
jobtype               sp
scf_guess             read
scf_algorithm         diis
max_scf_cycles        100
stability_analysis    true
max_cis_cycles        100
cis_n_roots           4
$end

--------------------------------------------------------------

             Standard Nuclear Orientation (Angstroms)
    I     Atom           X                Y                Z
 ----------------------------------------------------------------
    1      C       1.5354393401     0.3832944779    -0.3256694458
    2      C       0.7245705370    -0.8602902258    -0.0513494538
    3      C      -0.5067711270    -0.6177194884    -0.8644781985
    4      C      -0.9515981836     0.6536513395     0.8625448319
    5      C      -0.6016824958     0.9029894543    -0.5997538397
    6      N       0.8179073632     1.3885105789    -0.6627838579
    7      H       2.6140108667     0.4590111391    -0.1968424699
    8      H       1.1961026439    -1.8403808695    -0.0300431970
    9      H      -1.1684291520    -1.3021878851    -1.3745517282
   10      H      -1.5498146592     1.2281879579     1.5559056306
   11      H      -1.2730329984     1.5217166439    -1.1943562954
   12      C      -0.3537749900    -0.6050373942     1.0073421467
   13      H      -0.5438670375    -1.3445146718     1.7819482791
 ----------------------------------------------------------------

    2    -286.8208081795      8.51E-10 Convergence criterion met
 Total energy in the final basis set = -286.82080818

         TDDFT/TDA Excitation Energies
 ---------------------------------------------------

 Excited state   1: excitation energy (eV) =    2.4779
 Total energy for state  1:                  -286.72974642 au
    <S**2>     :  0.7849
    Trans. Mom.:  0.1706 X   0.2696 Y   0.1944 Z
    Strength   :     0.0084733262
    S(  1) --> V(  1) amplitude =  0.9291 alpha
    S(  1) --> V(  2) amplitude = -0.2991 alpha

 Excited state   2: excitation energy (eV) =    2.9078
 Total energy for state  2:                  -286.71394721 au
    <S**2>     :  0.7875
    Trans. Mom.:  0.2622 X  -0.0453 Y  -0.2974 Z
    Strength   :     0.0113459133
    S(  1) --> V(  1) amplitude =  0.3345 alpha
    S(  1) --> V(  2) amplitude =  0.9096 alpha

 Excited state   3: excitation energy (eV) =    4.4988
 Total energy for state  3:                  -286.65547891 au
    <S**2>     :  2.4922
    Trans. Mom.:  0.0247 X   0.0544 Y   0.0475 Z
    Strength   :     0.0006425309
    D( 23) --> V(  1) amplitude = -0.3093 alpha
    D( 23) --> V(  2) amplitude = -0.1565 alpha
    D( 24) --> V(  1) amplitude = -0.4897 alpha
    D( 24) --> V(  2) amplitude = -0.1828 alpha
    D( 23) --> S(  1) amplitude =  0.3432 beta
    D( 23) --> V(  1) amplitude =  0.3437 beta
    D( 24) --> S(  1) amplitude =  0.4343 beta
    D( 24) --> V(  1) amplitude =  0.3485 beta

 Excited state   4: excitation energy (eV) =    4.6038
 Total energy for state  4:                  -286.65162099 au
    <S**2>     :  2.4297
    Trans. Mom.:  0.0684 X   0.1050 Y   0.0899 Z
    Strength   :     0.0026842941
    D( 22) --> V(  1) amplitude =  0.1853 alpha
    D( 23) --> V(  1) amplitude =  0.4649 alpha
    D( 23) --> V(  2) amplitude =  0.1933 alpha
    D( 24) --> V(  1) amplitude = -0.2357 alpha
    D( 22) --> S(  1) amplitude = -0.3547 beta
    D( 22) --> V(  1) amplitude = -0.3733 beta
    D( 23) --> S(  1) amplitude = -0.2073 beta
    D( 23) --> V(  1) amplitude = -0.1700 beta
    D( 24) --> S(  1) amplitude =  0.4094 beta
    D( 24) --> V(  1) amplitude =  0.2646 beta

 ---------------------------------------------------

                    Orbital Energies (a.u.)
 --------------------------------------------------------------

 Alpha MOs
 -- Occupied --
-14.318 -10.221 -10.220 -10.217 -10.214 -10.209 -10.186  -0.956
 -0.837  -0.739  -0.679  -0.591  -0.576  -0.536  -0.515  -0.463
 -0.425  -0.408  -0.397  -0.376  -0.341  -0.295  -0.273  -0.252
 -0.140

 Beta MOs
 -- Occupied --
-14.318 -10.224 -10.220 -10.216 -10.214 -10.200 -10.176  -0.952
 -0.832  -0.731  -0.669  -0.586  -0.567  -0.534  -0.507  -0.458
 -0.421  -0.403  -0.395  -0.374  -0.335  -0.279  -0.263  -0.248

          Ground-State Mulliken Net Atomic Charges

     Atom                 Charge (a.u.)    Spin (a.u.)
  --------------------------------------------------------
      1 C                     0.099586       0.045339
      2 C                    -0.199049       0.005037
      3 C                    -0.133048       0.603208
      4 C                    -0.077602       0.682941
      5 C                    -0.095693      -0.069530
      6 N                    -0.338671      -0.005297
      7 H                     0.144885       0.001448
      8 H                     0.142578       0.003559
      9 H                     0.158475      -0.031245
     10 H                     0.141190      -0.028659
     11 H                     0.139931       0.008217
     12 C                    -0.131379      -0.229358
     13 H                     0.148799       0.014341
  --------------------------------------------------------
  Sum of atomic charges =    -0.000000

                    Cartesian Multipole Moments
 -----------------------------------------------------------------
    Charge (ESU x 10^10)
                -0.0000
    Dipole Moment (Debye)
         X      -0.6542      Y      -2.5029      Z       0.7571
       Tot       2.6955
    Quadrupole Moments (Debye-Ang)
        XX     -38.2091     XY      -3.2419     YY     -42.3744
        XZ       1.2125     YZ       0.9715     ZZ     -40.4228

 Total job time:  90.77s(wall), 88.84s(cpu)
        *  Thank you very much for using Q-Chem.  Have a nice day.  *
