 Q-Chem 5.0, Q-Chem, Inc., Pleasanton, CA (2017)
 Q-Chem 5.0.2 for Intel X86 EM64T Linux

User input:
--------------------------------------------------------------
$molecule
0 2
C        1.5354393401    0.3832944779   -0.3256694458
C        0.7245705370   -0.8602902258   -0.0513494538
C       -0.5067711270   -0.6177194884   -0.8644781985
C       -0.9515981836    0.6536513395    0.8625448319
C       -0.6016824958    0.9029894543   -0.5997538397
N        0.8179073632    1.3885105789   -0.6627838579
H        2.6140108667    0.4590111391   -0.1968424699
H        1.1961026439   -1.8403808695   -0.0300431970
H       -1.1684291520   -1.3021878851   -1.3745517282
H       -1.5498146592    1.2281879579    1.5559056306
H       -1.2730329984    1.5217166439   -1.1943562954
C       -0.3537749900   -0.6050373942    1.0073421467
H       -0.5438670375   -1.3445146718    1.7819482791
$end

$rem
method                b3lyp
basis                 6-31+g(d,p)
unrestricted          true
symmetry              off
sym_ignore            true
incdft                false
incfock               0
scf_convergence       8
thresh                14
jobtype               freq
scf_guess             read
scf_algorithm         diis
max_scf_cycles        100
$end

--------------------------------------------------------------

             Standard Nuclear Orientation (Angstroms)
    I     Atom           X                Y                Z
 ----------------------------------------------------------------
    1      C       1.5354393401     0.3832944779    -0.3256694458
    2      C       0.7245705370    -0.8602902258    -0.0513494538
    3      C      -0.5067711270    -0.6177194884    -0.8644781985
    4      C      -0.9515981836     0.6536513395     0.8625448319
    5      C      -0.6016824958     0.9029894543    -0.5997538397
    6      N       0.8179073632     1.3885105789    -0.6627838579
    7      H       2.6140108667     0.4590111391    -0.1968424699
    8      H       1.1961026439    -1.8403808695    -0.0300431970
    9      H      -1.1684291520    -1.3021878851    -1.3745517282
   10      H      -1.5498146592     1.2281879579     1.5559056306
   11      H      -1.2730329984     1.5217166439    -1.1943562954
   12      C      -0.3537749900    -0.6050373942     1.0073421467
   13      H      -0.5438670375    -1.3445146718     1.7819482791
 ----------------------------------------------------------------

    2    -286.8437772136      1.68E-09 Convergence criterion met
 Total energy in the final basis set = -286.84377721

                    Orbital Energies (a.u.)
 --------------------------------------------------------------

 Alpha MOs
 -- Occupied --
-14.334 -10.233 -10.231 -10.228 -10.226 -10.222 -10.199  -0.969
 -0.850  -0.750  -0.690  -0.601  -0.587  -0.546  -0.524  -0.475
 -0.435  -0.419  -0.409  -0.386  -0.352  -0.307  -0.286  -0.266
 -0.153

 Beta MOs
 -- Occupied --
-14.334 -10.236 -10.232 -10.228 -10.225 -10.214 -10.190  -0.966
 -0.845  -0.743  -0.680  -0.597  -0.578  -0.543  -0.516  -0.469
 -0.431  -0.414  -0.407  -0.384  -0.346  -0.292  -0.276  -0.262

          Ground-State Mulliken Net Atomic Charges

     Atom                 Charge (a.u.)    Spin (a.u.)
  --------------------------------------------------------
      1 C                    -0.063454       0.042293
      2 C                    -0.022316      -0.028358
      3 C                    -0.277219       0.641179
      4 C                    -0.140698       0.735404
      5 C                     0.021739      -0.124464
      6 N                    -0.208120      -0.002393
      7 H                     0.134759       0.001282
      8 H                     0.131593       0.004006
      9 H                     0.148899      -0.029126
     10 H                     0.138317      -0.028075
     11 H                     0.130618       0.009005
     12 C                    -0.134378      -0.234023
     13 H                     0.140261       0.013270
  --------------------------------------------------------
  Sum of atomic charges =    -0.000000

                    Cartesian Multipole Moments
 -----------------------------------------------------------------
    Charge (ESU x 10^10)
                -0.0000
    Dipole Moment (Debye)
         X      -0.6491      Y      -2.7450      Z       0.7988
       Tot       2.9316
    Quadrupole Moments (Debye-Ang)
        XX     -39.2677     XY      -3.8204     YY     -44.0522
        XZ       1.4490     YZ       0.8111     ZZ     -42.1104

 Frequency:      -761.80                 302.49                 365.53
 Force Cnst:      1.7427                 0.0642                 0.0861
 Red. Mass:       5.0967                 1.1907                 1.0933
 IR Intens:       67.118                 13.276                 36.730
 Frequency:       453.99                 474.92                 587.93
 Force Cnst:      0.5177                 0.5219                 0.7421
 Red. Mass:       4.2629                 3.9274                 3.6438
 IR Intens:       10.882                 12.266                  3.418
 Frequency:       716.69                 783.68                 811.58
 Force Cnst:      2.1123                 1.8961                 0.8909
 Red. Mass:       6.9798                 5.2401                 2.2958
 IR Intens:        0.790                  6.660                  5.295
 Frequency:       858.86                 874.81                 899.55
 Force Cnst:      1.3074                 1.1948                 0.8850
 Red. Mass:       3.0083                 2.6498                 1.8562
 IR Intens:        6.932                 23.670                  4.394
 Frequency:       911.08                 921.15                 940.36
 Force Cnst:      0.9054                 1.0840                 1.1231
 Red. Mass:       1.8513                 2.1683                 2.1557
 IR Intens:        7.866                 12.601                  2.948
 Frequency:       962.10                1026.02                1085.74
 Force Cnst:      0.8885                 1.0848                 1.1582
 Red. Mass:       1.6292                 1.7490                 1.6676
 IR Intens:        7.105                  5.706                  5.580
 Frequency:      1139.18                1185.80                1218.97
 Force Cnst:      1.3136                 1.7953                 1.1863
 Red. Mass:       1.7180                 2.1670                 1.3551
 IR Intens:        4.825                  5.206                  1.994
 Frequency:      1263.97                1283.29                1307.05
 Force Cnst:      1.1537                 1.3912                 2.0078
 Red. Mass:       1.2256                 1.4338                 1.9948
 IR Intens:        1.060                  3.560                 15.176
 Frequency:      1323.04                1408.50                1651.08
 Force Cnst:      1.6077                 3.1170                12.7168
 Red. Mass:       1.5588                 2.6667                 7.9175
 IR Intens:       19.979                  1.968                 27.243
 Frequency:      3149.91                3164.36                3174.71
 Force Cnst:      6.3749                 6.4303                 6.4950
 Red. Mass:       1.0905                 1.0900                 1.0938
 IR Intens:       23.471                  5.646                 16.059
 Frequency:      3181.65                3258.43                3276.47
 Force Cnst:      6.5215                 6.8535                 6.9284
 Red. Mass:       1.0934                 1.0956                 1.0954
 IR Intens:       20.891                  1.151                  0.616

 STANDARD THERMODYNAMIC QUANTITIES AT   298.15 K  AND     1.00 ATM

   This Molecule has  1 Imaginary Frequencies
   Zero point vibrational energy:       62.848 kcal/mol

   Atom    1 Element C  Has Mass   12.00000
   Atom    2 Element C  Has Mass   12.00000
   Atom    3 Element C  Has Mass   12.00000
   Atom    4 Element C  Has Mass   12.00000
   Atom    5 Element C  Has Mass   12.00000
   Atom    6 Element N  Has Mass   14.00307
   Atom    7 Element H  Has Mass    1.00783
   Atom    8 Element H  Has Mass    1.00783
   Atom    9 Element H  Has Mass    1.00783
   Atom   10 Element H  Has Mass    1.00783
   Atom   11 Element H  Has Mass    1.00783
   Atom   12 Element C  Has Mass   12.00000
   Atom   13 Element H  Has Mass    1.00783
   Molecular Mass:    92.050050 amu
   Principal axes and moments of inertia in amu*Bohr^2:
                             1           2           3
    Eigenvalues --      377.19193   457.49122   569.85557
          X               0.75614    -0.53562     0.37597
          Y               0.43639     0.84084     0.32023
          Z              -0.48766    -0.07807     0.86954
   Rotational Symmetry Number is   1
   The Molecule is an Asymmetric Top
   Translational Enthalpy:        0.889 kcal/mol
   Rotational Enthalpy:           0.889 kcal/mol
   Vibrational Enthalpy:         64.250 kcal/mol
   gas constant (RT):             0.592 kcal/mol
   Translational Entropy:        39.471  cal/mol.K
   Rotational Entropy:           26.089  cal/mol.K
   Vibrational Entropy:           6.556  cal/mol.K

   Total Enthalpy:               66.620 kcal/mol
   Total Entropy:                72.116  cal/mol.K

 Total job time:  559.72s(wall), 556.80s(cpu)
        *  Thank you very much for using Q-Chem.  Have a nice day.  *
