 Q-Chem 5.0, Q-Chem, Inc., Pleasanton, CA (2017)
 Q-Chem 5.0.2 for Intel X86 EM64T Linux

User input:
--------------------------------------------------------------
$molecule
0 2
C        1.6729542925    0.2249085080   -2.1354490425
C        1.0845955940   -0.9439970753   -1.9381869763
C       -0.4291961719   -1.1430979320   -2.2699212029
C       -1.4185191032    0.4427368073   -0.5271966496
C       -0.8101952519    0.8170580635   -1.9301890401
N        0.9144893144    1.4069460731   -2.5627246032
H        2.6182342213    0.4841002169   -1.6430436573
H        1.6553883843   -1.7271368589   -1.4893233109
H       -0.9387633530   -2.0113698287   -2.8251692467
H       -2.4132804223    0.7792685848   -0.1479362712
H       -1.1110818674    1.4408771094   -2.6954829443
C       -1.0362614712   -0.8565392507   -0.9710571120
H       -1.6623956634   -1.7564775498   -0.4389797788
$end

$rem
method                b3lyp
basis                 6-31g(d)
unrestricted          true
symmetry              off
sym_ignore            true
incdft                false
incfock               0
scf_convergence       8
thresh                14
jobtype               opt
scf_guess             read
scf_algorithm         diis
max_scf_cycles        100
geom_opt_tol_gradient 600
geom_opt_tol_displacement 2400
geom_opt_tol_energy   200
geom_opt_max_cycles   100
$end

--------------------------------------------------------------

    2    -286.6301803172      3.98E-09 Convergence criterion met
 Total energy in the final basis set = -286.63018032
   19    -286.6803963478      4.21E-09 Convergence criterion met
 Total energy in the final basis set = -286.68039635
   19    -286.7237125508      3.13E-09 Convergence criterion met
 Total energy in the final basis set = -286.72371255
   18    -286.7594180931      7.11E-09 Convergence criterion met
 Total energy in the final basis set = -286.75941809
   18    -286.7876445709      3.29E-09 Convergence criterion met
 Total energy in the final basis set = -286.78764457
   17    -286.8095572882      7.01E-09 Convergence criterion met
 Total energy in the final basis set = -286.80955729
   16    -286.8271695277      9.54E-09 Convergence criterion met
 Total energy in the final basis set = -286.82716953
   16    -286.8413920298      7.17E-09 Convergence criterion met
   12    -286.8752733242      9.66E-09 Convergence criterion met
 Total energy in the final basis set = -286.87527332
   13    -286.8753953007      3.92E-09 Convergence criterion met
 Total energy in the final basis set = -286.87539530
   12    -286.8754361380      2.97E-09 Convergence criterion met
 Total energy in the final basis set = -286.87543614
   11    -286.8754554772      9.65E-09 Convergence criterion met
 Total energy in the final basis set = -286.87545548
   10    -286.8754604018      9.40E-09 Convergence criterion met
 Total energy in the final basis set = -286.87546040
   10    -286.8754635958      8.99E-09 Convergence criterion met
 Total energy in the final basis set = -286.87546360

             Standard Nuclear Orientation (Angstroms)
    I     Atom           X                Y                Z
 ----------------------------------------------------------------
    1      C       1.5357082364     0.3207553085    -1.8618522546
    2      C       1.0675734794    -0.9988426748    -1.9628273562
    3      C      -0.4164155290    -0.9543744973    -2.1299632701
    4      C      -1.4590130084     0.3696780603    -0.8398336116
    5      C      -0.6645903757     0.6060334953    -2.1245444637
    6      N       0.6179960001     1.2781351660    -1.9460178628
    7      H       2.5772868911     0.5933284870    -1.6973335475
    8      H       1.6791417082    -1.8916528797    -1.8880008896
    9      H      -0.8094635299    -1.5501914695    -2.9642668459
   10      H      -1.9577275923     1.0617877189    -0.1675589065
   11      H      -1.2227145176     1.0402589562    -2.9626970282
   12      C      -1.2625745971    -0.9534401074    -0.8452535557
   13      H      -1.5592386630    -1.7641986960    -0.1845102432
 ----------------------------------------------------------------

   10    -286.8754658482      8.11E-09 Convergence criterion met
 Total energy in the final basis set = -286.87546585
 Final energy is   -286.875465848230
 **  OPTIMIZATION CONVERGED  **

                    Orbital Energies (a.u.)
 --------------------------------------------------------------

 Alpha MOs
 -- Occupied --
-14.328 -10.217 -10.216 -10.207 -10.203 -10.200 -10.195  -0.944
 -0.837  -0.752  -0.665  -0.618  -0.554  -0.523  -0.515  -0.481
 -0.428  -0.403  -0.386  -0.354  -0.341  -0.322  -0.270  -0.253
 -0.203

 Beta MOs
 -- Occupied --
-14.318 -10.219 -10.218 -10.203 -10.199 -10.198 -10.194  -0.932
 -0.831  -0.734  -0.665  -0.610  -0.549  -0.520  -0.512  -0.475
 -0.420  -0.396  -0.381  -0.343  -0.334  -0.301  -0.264  -0.246

          Ground-State Mulliken Net Atomic Charges

     Atom                 Charge (a.u.)    Spin (a.u.)
  --------------------------------------------------------
      1 C                     0.048228      -0.230793
      2 C                    -0.114991       0.693950
      3 C                    -0.193412      -0.054119
      4 C                    -0.075699       0.031868
      5 C                    -0.062100      -0.027581
      6 N                    -0.351158       0.516481
      7 H                     0.140522       0.007441
      8 H                     0.143407      -0.032187
      9 H                     0.148167       0.025148
     10 H                     0.137412       0.003597
     11 H                     0.151512       0.025309
     12 C                    -0.105239       0.033996
     13 H                     0.133350       0.006889
  --------------------------------------------------------
  Sum of atomic charges =    -0.000000

                    Cartesian Multipole Moments
 -----------------------------------------------------------------
    Charge (ESU x 10^10)
                 0.0000
    Dipole Moment (Debye)
         X      -0.3782      Y      -2.1165      Z       0.0666
       Tot       2.1510
    Quadrupole Moments (Debye-Ang)
        XX     -37.5258     XY      -2.2610     YY     -41.8825
        XZ       0.3294     YZ       3.9155     ZZ     -40.1826

 Total job time:  2345.10s(wall), 2909.37s(cpu)
        *  Thank you very much for using Q-Chem.  Have a nice day.  *
