 Q-Chem 5.0, Q-Chem, Inc., Pleasanton, CA (2017)
 Q-Chem 5.0.2 for Intel X86 EM64T Linux

User input:
--------------------------------------------------------------
$molecule
0 2
C        0.6811803230    0.0317936967    0.2156119993
C        0.9627661176   -1.2233317452   -0.5900318239
C        0.2675532960   -2.3347351359   -0.5389793213
C       -1.2861639979    1.1546114078    0.6052344057
C       -0.4534009560    1.8177589315   -0.4089599350
N        0.6579891053    1.2142700950   -0.6642781004
H        1.5273291672    0.1837620420    0.9088316254
H        1.8297741427   -1.1371404930   -1.2554242283
H        0.3023340206   -3.3107049610   -1.0065511347
H       -2.2520254188    1.4996642251    0.9567577263
H       -0.7184196235    2.7417342434   -0.9217213902
C       -0.6123296359    0.0543982618    0.9858516957
H       -0.9065865403   -0.6920805681    1.7136584814
$end

$rem
method                b3lyp
basis                 6-31g(d)
unrestricted          true
symmetry              off
sym_ignore            true
incdft                false
incfock               0
scf_convergence       8
thresh                14
jobtype               opt
scf_guess             read
scf_algorithm         diis
max_scf_cycles        100
geom_opt_tol_gradient 600
geom_opt_tol_displacement 2400
geom_opt_tol_energy   200
geom_opt_max_cycles   100
$end

--------------------------------------------------------------

    2    -286.8505842057      1.84E-09 Convergence criterion met
 Total energy in the final basis set = -286.85058421

             Standard Nuclear Orientation (Angstroms)
    I     Atom           X                Y                Z
 ----------------------------------------------------------------
    1      C       0.6821575114     0.0322816040     0.2156561933
    2      C       0.9635963627    -1.2230276308    -0.5896299490
    3      C       0.2664080915    -2.3333581705    -0.5392826981
    4      C      -1.2863084288     1.1536757725     0.6050168882
    5      C      -0.4534657832     1.8172779016    -0.4086994152
    6      N       0.6577282209     1.2142546195    -0.6651152314
    7      H       1.5280038738     0.1849582114     0.9090743081
    8      H       1.8310025597    -1.1379141386    -1.2546016338
    9      H       0.2995383066    -3.3096120223    -1.0063865660
   10      H      -2.2526206524     1.4986482503     0.9554029407
   11      H      -0.7188688720     2.7413295211    -0.9211265112
   12      C      -0.6113669439     0.0543232471     0.9863220225
   13      H      -0.9058042463    -0.6928371650     1.7133696519
 ----------------------------------------------------------------

   11    -286.8505851446      5.58E-09 Convergence criterion met
 Total energy in the final basis set = -286.85058514
 Final energy is   -286.850585144552
 **  OPTIMIZATION CONVERGED  **

                    Orbital Energies (a.u.)
 --------------------------------------------------------------

 Alpha MOs
 -- Occupied --
-14.321 -10.227 -10.224 -10.209 -10.202 -10.201 -10.196  -0.943
 -0.790  -0.765  -0.704  -0.595  -0.556  -0.537  -0.507  -0.469
 -0.446  -0.405  -0.398  -0.370  -0.326  -0.274  -0.265  -0.254
 -0.234

 Beta MOs
 -- Occupied --
-14.321 -10.226 -10.224 -10.204 -10.201 -10.196 -10.193  -0.943
 -0.782  -0.764  -0.693  -0.587  -0.555  -0.529  -0.504  -0.457
 -0.441  -0.403  -0.397  -0.365  -0.324  -0.268  -0.261  -0.252

          Ground-State Mulliken Net Atomic Charges

     Atom                 Charge (a.u.)    Spin (a.u.)
  --------------------------------------------------------
      1 C                    -0.069101       0.042922
      2 C                    -0.103247      -0.167503
      3 C                    -0.198664       1.040362
      4 C                    -0.142449       0.000226
      5 C                     0.055592       0.004853
      6 N                    -0.377573      -0.003573
      7 H                     0.181150      -0.004364
      8 H                     0.163995       0.078689
      9 H                     0.163971       0.004914
     10 H                     0.140190       0.000140
     11 H                     0.143526      -0.000138
     12 C                    -0.110643       0.002992
     13 H                     0.153251       0.000479
  --------------------------------------------------------
  Sum of atomic charges =    -0.000000

                    Cartesian Multipole Moments
 -----------------------------------------------------------------
    Charge (ESU x 10^10)
                -0.0000
    Dipole Moment (Debye)
         X      -0.8546      Y      -0.5991      Z       1.1007
       Tot       1.5169
    Quadrupole Moments (Debye-Ang)
        XX     -39.2816     XY      -4.2198     YY     -37.4678
        XZ      -0.0278     YZ       1.8516     ZZ     -40.9719

 Total job time:  12.27s(wall), 46.98s(cpu)
        *  Thank you very much for using Q-Chem.  Have a nice day.  *
