 Q-Chem 5.0, Q-Chem, Inc., Pleasanton, CA (2017)
 Q-Chem 5.0.2 for Intel X86 EM64T Linux

User input:
--------------------------------------------------------------
$molecule
0 2
C        1.9381086319    0.2421515692   -0.4943317505
C        1.1126372135   -0.7271466435   -0.0538879285
C       -0.3009202521   -0.2428291021   -0.2667667980
C       -1.0603105823   -0.0490476609    1.0516257632
C       -0.0184269089    1.0929777895   -0.9283998087
N        1.2375483550    1.3629581273   -1.0389285092
H        3.0213608496    0.2651299074   -0.4774009689
H        1.3796893522   -1.6715787123    0.4024854251
H       -0.8786044785   -0.8968420050   -0.9348349616
H       -0.5285813328    0.5579752751    1.7859554578
H       -0.7911484074    1.7827354485   -1.2585611253
C       -2.2450655187   -0.5402014963    1.3342427405
H       -3.0123513195   -1.1493351183    0.8771785276
$end

$rem
method                b3lyp
basis                 6-31+g(d,p)
unrestricted          true
symmetry              off
sym_ignore            true
incdft                false
incfock               0
scf_convergence       8
thresh                14
jobtype               opt
scf_guess             read
scf_algorithm         diis
max_scf_cycles        100
geom_opt_max_cycles   300
$end

--------------------------------------------------------------

   20    -286.8703192186      6.46E-09 Convergence criterion met
 Total energy in the final basis set = -286.87031922
   13    -286.8704721974      7.39E-09 Convergence criterion met
 Total energy in the final basis set = -286.87047220
   13    -286.8705840506      5.11E-09 Convergence criterion met
 Total energy in the final basis set = -286.87058405
   11    -286.8706094590      8.30E-09 Convergence criterion met
 Total energy in the final basis set = -286.87060946
   12    -286.8706172757      5.02E-09 Convergence criterion met
 Total energy in the final basis set = -286.87061728
   10    -286.8706191912      4.96E-09 Convergence criterion met
 Total energy in the final basis set = -286.87061919

             Standard Nuclear Orientation (Angstroms)
    I     Atom           X                Y                Z
 ----------------------------------------------------------------
    1      C       1.9462057397     0.2158415527    -0.5415644060
    2      C       1.1156165419    -0.7077801064    -0.0210069708
    3      C      -0.2935096451    -0.2039916055    -0.2159042906
    4      C      -1.0912016908    -0.0345017619     1.0784501436
    5      C      -0.0029933082     1.1141398508    -0.9085396238
    6      N       1.2533707002     1.3386865708    -1.0905850402
    7      H       3.0279753418     0.1989771996    -0.5906505382
    8      H       1.3762444101    -1.6435117186     0.4560349969
    9      H      -0.8565751091    -0.8559940156    -0.9000240093
   10      H      -0.6147164165     0.5910882150     1.8351254786
   11      H      -0.7692997024     1.8164044525    -1.2264628714
   12      C      -2.2633973337    -0.5799497400     1.3141215880
   13      H      -2.9737839258    -1.2224615147     0.8093816068
 ----------------------------------------------------------------

    9    -286.8706193735      6.48E-09 Convergence criterion met
 Total energy in the final basis set = -286.87061937
 Final energy is   -286.870619373480
 **  OPTIMIZATION CONVERGED  **

                    Orbital Energies (a.u.)
 --------------------------------------------------------------

 Alpha MOs
 -- Occupied --
-14.348 -10.242 -10.231 -10.229 -10.226 -10.223 -10.207  -0.965
 -0.823  -0.762  -0.724  -0.602  -0.577  -0.564  -0.523  -0.483
 -0.441  -0.423  -0.407  -0.395  -0.360  -0.304  -0.278  -0.255
 -0.249

 Beta MOs
 -- Occupied --
-14.348 -10.242 -10.229 -10.226 -10.225 -10.214 -10.207  -0.965
 -0.816  -0.757  -0.714  -0.592  -0.568  -0.564  -0.520  -0.475
 -0.432  -0.419  -0.406  -0.392  -0.358  -0.299  -0.273  -0.252

          Ground-State Mulliken Net Atomic Charges

     Atom                 Charge (a.u.)    Spin (a.u.)
  --------------------------------------------------------
      1 C                    -0.147533       0.000383
      2 C                    -0.079102       0.024302
      3 C                    -0.166606       0.041255
      4 C                    -0.000954      -0.189473
      5 C                    -0.074884       0.030614
      6 N                    -0.185424       0.001336
      7 H                     0.134950       0.000189
      8 H                     0.141035       0.000071
      9 H                     0.168102      -0.004165
     10 H                     0.152805       0.039584
     11 H                     0.142088      -0.000502
     12 C                    -0.234902       1.048549
     13 H                     0.150422       0.007855
  --------------------------------------------------------
  Sum of atomic charges =     0.000000

                    Cartesian Multipole Moments
 -----------------------------------------------------------------
    Charge (ESU x 10^10)
                 0.0000
    Dipole Moment (Debye)
         X      -1.0107      Y      -1.8152      Z       0.1808
       Tot       2.0854
    Quadrupole Moments (Debye-Ang)
        XX     -40.4606     XY      -2.2376     YY     -44.0722
        XZ       4.5676     YZ       2.5104     ZZ     -45.6053

 Total job time:  273.08s(wall), 563.98s(cpu)
        *  Thank you very much for using Q-Chem.  Have a nice day.  *
