 Q-Chem 5.0, Q-Chem, Inc., Pleasanton, CA (2017)
 Q-Chem 5.0.2 for Intel X86 EM64T Linux

User input:
--------------------------------------------------------------
$molecule
0 2
C        1.9574414626    0.2137686774   -0.5414394878
C        1.1268522648   -0.7098529817   -0.0208820526
C       -0.2822739222   -0.2060644808   -0.2157793724
C       -1.0799659679   -0.0365746372    1.0785750618
C        0.0082424147    1.1120669755   -0.9084147056
N        1.2646064231    1.3366136955   -1.0904601220
H        3.0392110647    0.1969043243   -0.5905256200
H        1.3874801330   -1.6455845939    0.4561599151
H       -0.8453393862   -0.8580668909   -0.8998990911
H       -0.6034806936    0.5890153397    1.8352503968
H       -0.7580639795    1.8143315772   -1.2263379532
C       -2.2521616108   -0.5820226153    1.3142465062
H       -2.9625482029   -1.2245343900    0.8095065250
$end

$rem
method                b3lyp
basis                 6-31+g(d,p)
unrestricted          true
symmetry              off
sym_ignore            true
incdft                false
incfock               0
scf_convergence       8
thresh                14
jobtype               sp
scf_guess             read
scf_algorithm         diis
max_scf_cycles        100
scf_final_print       1
$end

--------------------------------------------------------------

             Standard Nuclear Orientation (Angstroms)
    I     Atom           X                Y                Z
 ----------------------------------------------------------------
    1      C       1.9574414626     0.2137686774    -0.5414394878
    2      C       1.1268522648    -0.7098529817    -0.0208820526
    3      C      -0.2822739222    -0.2060644808    -0.2157793724
    4      C      -1.0799659679    -0.0365746372     1.0785750618
    5      C       0.0082424147     1.1120669755    -0.9084147056
    6      N       1.2646064231     1.3366136955    -1.0904601220
    7      H       3.0392110647     0.1969043243    -0.5905256200
    8      H       1.3874801330    -1.6455845939     0.4561599151
    9      H      -0.8453393862    -0.8580668909    -0.8998990911
   10      H      -0.6034806936     0.5890153397     1.8352503968
   11      H      -0.7580639795     1.8143315772    -1.2263379532
   12      C      -2.2521616108    -0.5820226153     1.3142465062
   13      H      -2.9625482029    -1.2245343900     0.8095065250
 ----------------------------------------------------------------

    2    -286.8706193734      4.19E-09 Convergence criterion met
 Total energy in the final basis set = -286.87061937

                    Orbital Energies (a.u.)
 --------------------------------------------------------------

 Alpha MOs
 -- Occupied --
-14.348 -10.242 -10.231 -10.229 -10.226 -10.223 -10.207  -0.965
 -0.823  -0.762  -0.724  -0.602  -0.577  -0.564  -0.523  -0.483
 -0.441  -0.423  -0.407  -0.395  -0.360  -0.304  -0.278  -0.255
 -0.249

 Beta MOs
 -- Occupied --
-14.348 -10.242 -10.229 -10.226 -10.225 -10.214 -10.207  -0.965
 -0.816  -0.757  -0.714  -0.592  -0.568  -0.564  -0.520  -0.475
 -0.432  -0.419  -0.406  -0.392  -0.358  -0.299  -0.273  -0.252

          Ground-State Mulliken Net Atomic Charges

     Atom                 Charge (a.u.)    Spin (a.u.)
  --------------------------------------------------------
      1 C                    -0.147533       0.000342
      2 C                    -0.079101       0.024353
      3 C                    -0.166606       0.041255
      4 C                    -0.000954      -0.189481
      5 C                    -0.074884       0.030568
      6 N                    -0.185423       0.001371
      7 H                     0.134950       0.000192
      8 H                     0.141035       0.000068
      9 H                     0.168102      -0.004164
     10 H                     0.152805       0.039585
     11 H                     0.142088      -0.000498
     12 C                    -0.234902       1.048556
     13 H                     0.150422       0.007855
  --------------------------------------------------------
  Sum of atomic charges =     0.000000

                    Cartesian Multipole Moments
 -----------------------------------------------------------------
    Charge (ESU x 10^10)
                 0.0000
    Dipole Moment (Debye)
         X      -1.0107      Y      -1.8152      Z       0.1808
       Tot       2.0854
    Quadrupole Moments (Debye-Ang)
        XX     -40.4833     XY      -2.2559     YY     -44.0646
        XZ       4.5695     YZ       2.5098     ZZ     -45.6052

 Total job time:  8.09s(wall), 11.95s(cpu)
        *  Thank you very much for using Q-Chem.  Have a nice day.  *
