 Q-Chem 5.0, Q-Chem, Inc., Pleasanton, CA (2017)
 Q-Chem 5.0.2 for Intel X86 EM64T Linux

User input:
--------------------------------------------------------------
$molecule
0 2
C        1.7125492877   -0.2171770291    0.0853630181
C        2.2577630633   -0.0515330580   -1.2581234100
C        1.1840363016    0.2401955362   -2.0494908952
C       -2.2801861944   -0.1192068025    2.0740882323
C        0.0325999134    0.2387920050   -1.1525201134
N        0.3768368486   -0.0380434781    0.1217761585
H        2.2677245431   -0.4568277245    0.9861238013
H        3.2976081498   -0.1460701029   -1.5410137595
H        1.1634676085    0.4356118427   -3.1131602787
H       -1.3186732356   -0.1187556447    1.5903074412
H       -1.0010726338    0.4296956249   -1.4214999176
C       -3.3679886086   -0.1034808259    2.6035784805
H       -4.3246650436   -0.0932003432    3.0745712426
$end

$rem
method                b3lyp
basis                 6-31+g(d,p)
unrestricted          true
symmetry              off
sym_ignore            true
incdft                false
incfock               0
scf_convergence       8
thresh                14
jobtype               sp
scf_guess             read
scf_algorithm         diis
max_scf_cycles        100
scf_final_print       1
$end

--------------------------------------------------------------

             Standard Nuclear Orientation (Angstroms)
    I     Atom           X                Y                Z
 ----------------------------------------------------------------
    1      C       1.7125492877    -0.2171770291     0.0853630181
    2      C       2.2577630633    -0.0515330580    -1.2581234100
    3      C       1.1840363016     0.2401955362    -2.0494908952
    4      C      -2.2801861944    -0.1192068025     2.0740882323
    5      C       0.0325999134     0.2387920050    -1.1525201134
    6      N       0.3768368486    -0.0380434781     0.1217761585
    7      H       2.2677245431    -0.4568277245     0.9861238013
    8      H       3.2976081498    -0.1460701029    -1.5410137595
    9      H       1.1634676085     0.4356118427    -3.1131602787
   10      H      -1.3186732356    -0.1187556447     1.5903074412
   11      H      -1.0010726338     0.4296956249    -1.4214999176
   12      C      -3.3679886086    -0.1034808259     2.6035784805
   13      H      -4.3246650436    -0.0932003432     3.0745712426
 ----------------------------------------------------------------

    2    -286.8704026935      8.51E-10 Convergence criterion met
 Total energy in the final basis set = -286.87040269

                    Orbital Energies (a.u.)
 --------------------------------------------------------------

 Alpha MOs
 -- Occupied --
-14.343 -10.262 -10.261 -10.220 -10.219 -10.184 -10.181  -0.981
 -0.790  -0.743  -0.736  -0.589  -0.583  -0.552  -0.537  -0.476
 -0.437  -0.431  -0.423  -0.410  -0.296  -0.276  -0.276  -0.273
 -0.262

 Beta MOs
 -- Occupied --
-14.346 -10.254 -10.254 -10.219 -10.218 -10.184 -10.181  -0.974
 -0.787  -0.736  -0.722  -0.584  -0.572  -0.551  -0.535  -0.476
 -0.433  -0.421  -0.404  -0.401  -0.297  -0.276  -0.276  -0.270

          Ground-State Mulliken Net Atomic Charges

     Atom                 Charge (a.u.)    Spin (a.u.)
  --------------------------------------------------------
      1 C                    -0.067250       0.530905
      2 C                    -0.101130       0.078527
      3 C                    -0.152957       0.086646
      4 C                    -0.056756       0.000226
      5 C                    -0.034340       0.526456
      6 N                    -0.184777      -0.159383
      7 H                     0.144184      -0.026399
      8 H                     0.142986      -0.005814
      9 H                     0.142590      -0.005895
     10 H                     0.211903       0.001245
     11 H                     0.148506      -0.026294
     12 C                    -0.375180      -0.000230
     13 H                     0.182221       0.000009
  --------------------------------------------------------
  Sum of atomic charges =    -0.000000

                    Cartesian Multipole Moments
 -----------------------------------------------------------------
    Charge (ESU x 10^10)
                -0.0000
    Dipole Moment (Debye)
         X       2.0367      Y       0.1631      Z      -2.3150
       Tot       3.0878
    Quadrupole Moments (Debye-Ang)
        XX     -34.1416     XY      -1.3864     YY     -45.2672
        XZ      -0.1705     YZ      -1.1443     ZZ     -39.7854

 Total job time:  11.85s(wall), 10.26s(cpu)
        *  Thank you very much for using Q-Chem.  Have a nice day.  *
