 Q-Chem 5.0, Q-Chem, Inc., Pleasanton, CA (2017)
 Q-Chem 5.0.2 for Intel X86 EM64T Linux

User input:
--------------------------------------------------------------
$molecule
0 2
C        1.9141397488    0.3228992214   -0.3222140275
C        1.1377290444   -0.8080480643   -0.2431537818
C       -0.1835494367   -0.3963603124   -0.6343481699
C       -1.1193784953    0.0301946131    1.1969463166
C       -0.0184805764    1.0244741536   -1.0077639561
N        1.1973122050    1.4486877280   -0.7857587008
H        2.9665887570    0.4287378430   -0.0881005262
H        1.4396850341   -1.7971784610    0.0723039546
H       -0.9471107119   -1.0473971265   -1.0402204334
H       -0.3367311861    0.6321773235    1.6228460831
H       -0.8029786575    1.6788066326   -1.3730686420
C       -2.2437898771   -0.4705950300    1.3740862164
H       -3.1495002484   -1.0194511505    1.2268217294
$end

$rem
method                b3lyp
basis                 6-31+g(d,p)
unrestricted          true
symmetry              off
sym_ignore            true
incdft                false
incfock               0
scf_convergence       6
thresh                14
jobtype               sp
scf_guess             read
scf_algorithm         diis
max_scf_cycles        100
stability_analysis    true
max_cis_cycles        100
cis_n_roots           4
$end

--------------------------------------------------------------

             Standard Nuclear Orientation (Angstroms)
    I     Atom           X                Y                Z
 ----------------------------------------------------------------
    1      C       1.9141397488     0.3228992214    -0.3222140275
    2      C       1.1377290444    -0.8080480643    -0.2431537818
    3      C      -0.1835494367    -0.3963603124    -0.6343481699
    4      C      -1.1193784953     0.0301946131     1.1969463166
    5      C      -0.0184805764     1.0244741536    -1.0077639561
    6      N       1.1973122050     1.4486877280    -0.7857587008
    7      H       2.9665887570     0.4287378430    -0.0881005262
    8      H       1.4396850341    -1.7971784610     0.0723039546
    9      H      -0.9471107119    -1.0473971265    -1.0402204334
   10      H      -0.3367311861     0.6321773235     1.6228460831
   11      H      -0.8029786575     1.6788066326    -1.3730686420
   12      C      -2.2437898771    -0.4705950300     1.3740862164
   13      H      -3.1495002484    -1.0194511505     1.2268217294
 ----------------------------------------------------------------

    2    -286.8391123587      1.30E-09 Convergence criterion met
 Total energy in the final basis set = -286.83911236

         TDDFT/TDA Excitation Energies
 ---------------------------------------------------

 Excited state   1: excitation energy (eV) =    1.6027
 Total energy for state  1:                  -286.78021350 au
    <S**2>     :  0.8467
    Trans. Mom.: -0.3335 X  -0.1223 Y   0.2030 Z
    Strength   :     0.0065726005
    D( 24) --> S(  1) amplitude =  0.9770 beta

 Excited state   2: excitation energy (eV) =    2.3522
 Total energy for state  2:                  -286.75267001 au
    <S**2>     :  0.8515
    Trans. Mom.: -0.1077 X  -0.0909 Y   0.0665 Z
    Strength   :     0.0013994354
    D( 23) --> S(  1) amplitude =  0.9869 beta

 Excited state   3: excitation energy (eV) =    3.2591
 Total energy for state  3:                  -286.71934323 au
    <S**2>     :  0.8201
    Trans. Mom.: -0.0923 X  -0.0831 Y   0.0934 Z
    Strength   :     0.0019273238
    S(  1) --> V(  1) amplitude =  0.1529 alpha
    D( 21) --> S(  1) amplitude = -0.2497 beta
    D( 22) --> S(  1) amplitude =  0.9331 beta

 Excited state   4: excitation energy (eV) =    3.5560
 Total energy for state  4:                  -286.70843340 au
    <S**2>     :  0.8833
    Trans. Mom.: -0.2309 X   0.0426 Y   0.0823 Z
    Strength   :     0.0053932217
    D( 24) --> V(  1) amplitude =  0.2218 alpha
    S(  1) --> V(  1) amplitude =  0.5384 alpha
    D( 21) --> S(  1) amplitude =  0.7685 beta

 ---------------------------------------------------

                    Orbital Energies (a.u.)
 --------------------------------------------------------------

 Alpha MOs
 -- Occupied --
-14.332 -10.236 -10.233 -10.232 -10.231 -10.225 -10.192  -0.959
 -0.794  -0.766  -0.723  -0.594  -0.575  -0.560  -0.523  -0.505
 -0.421  -0.415  -0.402  -0.396  -0.339  -0.316  -0.274  -0.248
 -0.225

 Beta MOs
 -- Occupied --
-14.332 -10.239 -10.230 -10.227 -10.224 -10.221 -10.194  -0.954
 -0.786  -0.760  -0.711  -0.586  -0.571  -0.555  -0.520  -0.500
 -0.418  -0.402  -0.397  -0.390  -0.320  -0.311  -0.272  -0.241

          Ground-State Mulliken Net Atomic Charges

     Atom                 Charge (a.u.)    Spin (a.u.)
  --------------------------------------------------------
      1 C                    -0.085926       0.279907
      2 C                    -0.155699      -0.163515
      3 C                    -0.011771       0.428444
      4 C                    -0.054719      -0.211848
      5 C                    -0.195946       0.135242
      6 N                    -0.212820       0.005780
      7 H                     0.132286      -0.013058
      8 H                     0.132299       0.005085
      9 H                     0.145810      -0.020695
     10 H                     0.193811       0.028369
     11 H                     0.136675      -0.008865
     12 C                    -0.204829       0.555797
     13 H                     0.180828      -0.020642
  --------------------------------------------------------
  Sum of atomic charges =    -0.000000

                    Cartesian Multipole Moments
 -----------------------------------------------------------------
    Charge (ESU x 10^10)
                -0.0000
    Dipole Moment (Debye)
         X      -2.1086      Y      -2.3838      Z       0.6156
       Tot       3.2416
    Quadrupole Moments (Debye-Ang)
        XX     -36.7340     XY      -0.9956     YY     -45.3819
        XZ       3.0599     YZ       1.5381     ZZ     -44.0232

 Total job time:  252.16s(wall), 182.12s(cpu)
        *  Thank you very much for using Q-Chem.  Have a nice day.  *
