 Q-Chem 5.0, Q-Chem, Inc., Pleasanton, CA (2017)
 Q-Chem 5.0.2 for Intel X86 EM64T Linux

User input:
--------------------------------------------------------------
$molecule
0 2
C        1.9427729284    0.1637899110   -0.5821900459
C        1.1171349476   -0.7253102723   -0.0033664819
C       -0.2925976564   -0.2259724162   -0.2058718949
C       -1.0517695021    0.0429179530    1.0946638986
C       -0.0023613579    1.0449118898   -0.9825827732
N        1.2506552692    1.2575780343   -1.1896762431
H        3.0249281025    0.1413379324   -0.6406777182
H        1.3786042338   -1.6325201048    0.5262072608
H       -0.8806735455   -0.9154780070   -0.8291406089
H       -0.5418363338    0.7123688122    1.7898333208
H       -0.7713822806    1.7302618721   -1.3318364409
C       -2.2229689497   -0.4639660931    1.4013896000
H       -2.9505058560   -1.1299195115    0.9532481269
****
C        1.4071789816   -0.4164944335    0.0531609426
C        2.2315945606   -0.2206123993   -1.1333816918
C        1.4143555753    0.3811930082   -2.0437402409
C       -2.3477870099   -0.0975729087    2.0274876250
C        0.1291795832    0.5257410040   -1.3693325258
N        0.1500592576    0.0399128552   -0.1132167952
H        1.7158336443   -0.8719917312    0.9885383119
H        3.2709434078   -0.5028720565   -1.2406071187
H        1.6441299309    0.6942334427   -3.0537466685
H       -1.5376513072   -0.0216424164    1.3219415923
H       -0.7747147551    0.9659413375   -1.7792270059
C       -3.2521559103   -0.1955064323    2.8203229797
H       -4.0509659586   -0.2803292698    3.5218005952
$end

$rem
method                b3lyp
basis                 6-31g(d)
unrestricted          true
symmetry              off
sym_ignore            true
incdft                false
incfock               0
scf_convergence       8
thresh                14
jobtype               fsm
scf_algorithm         rca_diis
thresh_rca_switch     4
max_scf_cycles        300
fsm_nnode             21
fsm_ngrad             6
fsm_mode              2
fsm_opt_mode          2
$end

--------------------------------------------------------------

   17    -286.8461985301      5.30E-09 Convergence criterion met
 Total energy in the final basis set = -286.84619853
   16    -286.8437826420      6.83E-09 Convergence criterion met
 Total energy in the final basis set = -286.84378264
   18    -286.8340211210      5.06E-09 Convergence criterion met
 Total energy in the final basis set = -286.83402112
   18    -286.8378384481      4.32E-09 Convergence criterion met
 Total energy in the final basis set = -286.83783845
   17    -286.8399876166      4.16E-09 Convergence criterion met
 Total energy in the final basis set = -286.83998762
   17    -286.8410749265      7.73E-09 Convergence criterion met
 Total energy in the final basis set = -286.84107493
   19    -286.8136950028      4.64E-09 Convergence criterion met
 Total energy in the final basis set = -286.81369500
   18    -286.8204580806      7.46E-09 Convergence criterion met
 Total energy in the final basis set = -286.77737708
   21    -286.7773626708      3.98E-09 Convergence criterion met
 Total energy in the final basis set = -286.77736267
   21    -286.7774488438      4.05E-09 Convergence criterion met
 Total energy in the final basis set = -286.77744884
   21    -286.7772918520      3.97E-09 Convergence criterion met
 Total energy in the final basis set = -286.77729185
   21    -286.7775054614      4.05E-09 Convergence criterion met
 Total energy in the final basis set = -286.77750546
   21    -286.7772358557      3.95E-09 Convergence criterion met
 Total energy in the final basis set = -286.77723586
   21    -286.7775779149      4.04E-09 Convergence criterion met
 Total energy in the final basis set = -286.77757791
   21    -286.7771642928      3.94E-09 Convergence criterion met
 Total energy in the final basis set = -286.77716429

                    Orbital Energies (a.u.)
 --------------------------------------------------------------

 Alpha MOs
 -- Occupied --
-14.321 -10.226 -10.225 -10.222 -10.217 -10.214 -10.184  -0.946
 -0.768  -0.756  -0.714  -0.576  -0.564  -0.548  -0.499  -0.469
 -0.413  -0.402  -0.388  -0.366  -0.325  -0.293  -0.263  -0.241
 -0.220

 Beta MOs
 -- Occupied --
-14.321 -10.220 -10.220 -10.218 -10.217 -10.211 -10.186  -0.941
 -0.760  -0.750  -0.702  -0.568  -0.559  -0.544  -0.495  -0.463
 -0.407  -0.394  -0.383  -0.356  -0.310  -0.290  -0.259  -0.234

          Ground-State Mulliken Net Atomic Charges

     Atom                 Charge (a.u.)    Spin (a.u.)
  --------------------------------------------------------
      1 C                     0.015849       0.245579
      2 C                    -0.146768      -0.153063
      3 C                    -0.177815       0.550374
      4 C                    -0.222251      -0.267287
      5 C                     0.058521       0.112743
      6 N                    -0.379490      -0.000261
      7 H                     0.141608      -0.010500
      8 H                     0.139241       0.005282
      9 H                     0.159236      -0.026888
     10 H                     0.209021       0.025962
     11 H                     0.148456      -0.007650
     12 C                    -0.144692       0.542987
     13 H                     0.199083      -0.017280
  --------------------------------------------------------
  Sum of atomic charges =    -0.000000

                    Cartesian Multipole Moments
 -----------------------------------------------------------------
    Charge (ESU x 10^10)
                -0.0000
    Dipole Moment (Debye)
         X      -1.6929      Y      -1.8288      Z       0.4871
       Tot       2.5392
    Quadrupole Moments (Debye-Ang)
        XX     -34.2167     XY      -2.0095     YY     -44.1530
        XZ      -0.9571     YZ       1.3103     ZZ     -38.9292

             Standard Nuclear Orientation (Angstroms)
    I     Atom           X                Y                Z
 ----------------------------------------------------------------
    1      C       1.9395303481     0.3167227627    -0.2716197758
    2      C       1.2152925273    -0.8374705696    -0.3068296899
    3      C      -0.1278669726    -0.4550911071    -0.7390766687
    4      C      -1.3235009169    -0.0658773992     1.1143548047
    5      C       0.0232787705     1.0100529264    -0.9808529138
    6      N       1.2011261364     1.4617146808    -0.6843144720
    7      H       2.9912481893     0.4260683257    -0.0215236962
    8      H       1.6196899290    -1.8277380630    -0.1291657662
    9      H      -0.5439899912    -1.0237637548    -1.5834924251
   10      H      -0.6080677909     0.6532956800     1.5064618306
   11      H      -0.7617349168     1.6392261426    -1.3857299544
   12      C      -2.4146828689    -0.4024809309     1.6268640366
   13      H      -3.3563868433    -0.8677113598     1.8533007529
 ----------------------------------------------------------------

 Total job time:  2922.96s(wall), 4449.93s(cpu)
        *  Thank you very much for using Q-Chem.  Have a nice day.  *
