 Q-Chem 5.0, Q-Chem, Inc., Pleasanton, CA (2017)
 Q-Chem 5.0.2 for Intel X86 EM64T Linux

User input:
--------------------------------------------------------------
$molecule
0 2
C        1.9613901797    0.3775932710   -0.3425477418
C        1.2035788550   -0.8555143432   -0.4516457862
C       -0.0082700892   -0.4864881348   -0.9609860460
C       -1.3800235742    0.1666344342    1.7026737693
C        0.0670924953    0.9689889507   -1.1274329949
N        1.2540076768    1.4635686569   -0.7486227952
H        2.9824077282    0.4837140167    0.0084614651
H        1.5327533756   -1.8411856820   -0.1517310754
H       -0.8750703400   -1.1026790741   -1.1536399618
H       -0.4686546880    0.7081842932    1.8240535225
H       -0.7245316209    1.6193420147   -1.4850230490
C       -2.4002287205   -0.4578195060    1.5292088503
H       -3.2905156766   -1.0173915226    1.3556079048
$end

$rem
method                b3lyp
basis                 6-31+g(d,p)
unrestricted          true
symmetry              off
sym_ignore            true
incdft                false
incfock               0
scf_convergence       8
thresh                14
jobtype               opt
scf_guess             read
scf_algorithm         diis
max_scf_cycles        100
geom_opt_max_cycles   300
$end

--------------------------------------------------------------

   19    -286.8618045103      7.20E-09 Convergence criterion met
 Total energy in the final basis set = -286.86180451
   14    -286.8621123794      3.36E-09 Convergence criterion met
 Total energy in the final basis set = -286.86211238
   14    -286.8626760651      5.54E-09 Convergence criterion met
 Total energy in the final basis set = -286.86267607
   14    -286.8631308093      3.47E-09 Convergence criterion met
 Total energy in the final basis set = -286.86313081
   14    -286.8635012748      3.10E-09 Convergence criterion met
 Total energy in the final basis set = -286.86350127
   13    -286.8638064261      9.71E-09 Convergence criterion met
 Total energy in the final basis set = -286.86380643
   13    -286.8640600812      7.86E-09 Convergence criterion met
 Total energy in the final basis set = -286.86406008
   13    -286.8642722768      6.89E-09 Convergence criterion met
   13    -286.8704022520      4.89E-09 Convergence criterion met
 Total energy in the final basis set = -286.87040225
   12    -286.8704039678      5.22E-09 Convergence criterion met
 Total energy in the final basis set = -286.87040397
   13    -286.8704012831      6.77E-09 Convergence criterion met
 Total energy in the final basis set = -286.87040128
   12    -286.8704047194      6.88E-09 Convergence criterion met
 Total energy in the final basis set = -286.87040472
   13    -286.8704040329      3.22E-09 Convergence criterion met
 Total energy in the final basis set = -286.87040403
   13    -286.8704059170      4.45E-09 Convergence criterion met
 Total energy in the final basis set = -286.87040592

             Standard Nuclear Orientation (Angstroms)
    I     Atom           X                Y                Z
 ----------------------------------------------------------------
    1      C       1.7168555318    -0.0437509887    -0.0226785620
    2      C       2.1430524408    -0.3735017456    -1.3791195403
    3      C       0.9902798658    -0.4887271107    -2.1013246845
    4      C      -2.1116400443     0.5362625354     2.1946992110
    5      C      -0.0869269032    -0.2241540710    -1.1525959824
    6      N       0.3757298097     0.0401239943     0.0866342470
    7      H       2.3580458269     0.1249590935     0.8360649383
    8      H       3.1641130034    -0.4957434780    -1.7148741910
    9      H       0.8725636013    -0.7220823509    -3.1508887900
   10      H      -1.1928245770     0.4168862802     1.6468575844
   11      H      -1.1517571382    -0.2269693035    -1.3609238699
   12      C      -3.1538275970     0.6794714803     2.7923873242
   13      H      -4.0697282187     0.8041730394     3.3241383768
 ----------------------------------------------------------------

   10    -286.8704064008      8.35E-09 Convergence criterion met
 Total energy in the final basis set = -286.87040640
 Final energy is   -286.870406400822
 **  OPTIMIZATION CONVERGED  **

                    Orbital Energies (a.u.)
 --------------------------------------------------------------

 Alpha MOs
 -- Occupied --
-14.343 -10.262 -10.262 -10.220 -10.219 -10.184 -10.181  -0.981
 -0.790  -0.743  -0.736  -0.589  -0.583  -0.552  -0.537  -0.476
 -0.437  -0.431  -0.423  -0.410  -0.296  -0.276  -0.276  -0.273
 -0.262

 Beta MOs
 -- Occupied --
-14.346 -10.254 -10.254 -10.219 -10.218 -10.184 -10.181  -0.974
 -0.787  -0.736  -0.722  -0.584  -0.572  -0.551  -0.535  -0.476
 -0.433  -0.421  -0.404  -0.401  -0.297  -0.276  -0.276  -0.270

          Ground-State Mulliken Net Atomic Charges

     Atom                 Charge (a.u.)    Spin (a.u.)
  --------------------------------------------------------
      1 C                    -0.067104       0.530803
      2 C                    -0.100848       0.078969
      3 C                    -0.153785       0.086066
      4 C                    -0.056875       0.000213
      5 C                    -0.033639       0.526768
      6 N                    -0.185191      -0.159453
      7 H                     0.144189      -0.026398
      8 H                     0.142952      -0.005832
      9 H                     0.142615      -0.005873
     10 H                     0.211989       0.001246
     11 H                     0.148578      -0.026306
     12 C                    -0.375119      -0.000213
     13 H                     0.182238       0.000009
  --------------------------------------------------------
  Sum of atomic charges =     0.000000

                    Cartesian Multipole Moments
 -----------------------------------------------------------------
    Charge (ESU x 10^10)
                 0.0000
    Dipole Moment (Debye)
         X       1.8370      Y      -0.6029      Z      -2.4083
       Tot       3.0883
    Quadrupole Moments (Debye-Ang)
        XX     -34.0512     XY      -0.4000     YY     -45.3960
        XZ      -0.3032     YZ       1.2356     ZZ     -39.7909

 Total job time:  5834.60s(wall), 10281.99s(cpu)
        *  Thank you very much for using Q-Chem.  Have a nice day.  *
