 Q-Chem 5.0, Q-Chem, Inc., Pleasanton, CA (2017)
 Q-Chem 5.0.2 for Intel X86 EM64T Linux

User input:
--------------------------------------------------------------
$molecule
0 2
C        1.4070808082   -0.4162452932    0.0529122145
C        2.2317435209   -0.2207509882   -1.1331213223
C        1.4143781494    0.3811150641   -2.0436267956
C       -2.3477322796   -0.0971190147    2.0273722337
C        0.1291349307    0.5258904076   -1.3697993504
N        0.1499578241    0.0397250646   -0.1132064142
H        1.7161211031   -0.8721595207    0.9884469298
H        3.2710950001   -0.5028847600   -1.2404701366
H        1.6441254435    0.6941357225   -3.0536857455
H       -1.5377142575   -0.0215008136    1.3217514557
H       -0.7750181459    0.9659849263   -1.7788524247
C       -3.2521962725   -0.1957325051    2.8203417849
H       -4.0509758245   -0.2804582896    3.5219375708
$end

$rem
method                b3lyp
basis                 6-31g(d)
unrestricted          true
symmetry              off
sym_ignore            true
incdft                false
incfock               0
scf_convergence       8
thresh                14
jobtype               opt
scf_guess             core
scf_guess_mix         5
scf_algorithm         diis
max_scf_cycles        100
geom_opt_max_cycles   300
$end

--------------------------------------------------------------

   25    -286.8437814953      5.58E-09 Convergence criterion met
 Total energy in the final basis set = -286.84378150
   17    -286.8437819414      3.77E-09 Convergence criterion met
 Total energy in the final basis set = -286.84378194

             Standard Nuclear Orientation (Angstroms)
    I     Atom           X                Y                Z
 ----------------------------------------------------------------
    1      C       1.4071789816    -0.4164944335     0.0531609426
    2      C       2.2315945606    -0.2206123993    -1.1333816918
    3      C       1.4143555753     0.3811930082    -2.0437402409
    4      C      -2.3477870099    -0.0975729087     2.0274876250
    5      C       0.1291795832     0.5257410040    -1.3693325258
    6      N       0.1500592576     0.0399128552    -0.1132167952
    7      H       1.7158336443    -0.8719917312     0.9885383119
    8      H       3.2709434078    -0.5028720565    -1.2406071187
    9      H       1.6441299309     0.6942334427    -3.0537466685
   10      H      -1.5376513072    -0.0216424164     1.3219415923
   11      H      -0.7747147551     0.9659413375    -1.7792270059
   12      C      -3.2521559103    -0.1955064323     2.8203229797
   13      H      -4.0509659586    -0.2803292698     3.5218005952
 ----------------------------------------------------------------

   17    -286.8437826276      2.48E-09 Convergence criterion met
 Total energy in the final basis set = -286.84378263
 Final energy is   -286.843782627575
 **  OPTIMIZATION CONVERGED  **

                    Orbital Energies (a.u.)
 --------------------------------------------------------------

 Alpha MOs
 -- Occupied --
-14.332 -10.253 -10.253 -10.211 -10.210 -10.165 -10.161  -0.971
 -0.781  -0.735  -0.716  -0.582  -0.576  -0.539  -0.529  -0.462
 -0.429  -0.423  -0.416  -0.403  -0.286  -0.264  -0.257  -0.257
 -0.253

 Beta MOs
 -- Occupied --
-14.334 -10.246 -10.245 -10.210 -10.209 -10.165 -10.161  -0.965
 -0.778  -0.716  -0.713  -0.576  -0.565  -0.539  -0.527  -0.462
 -0.426  -0.414  -0.397  -0.392  -0.287  -0.261  -0.257  -0.256

          Ground-State Mulliken Net Atomic Charges

     Atom                 Charge (a.u.)    Spin (a.u.)
  --------------------------------------------------------
      1 C                     0.072211       0.535191
      2 C                    -0.155998       0.079512
      3 C                    -0.155155       0.082981
      4 C                    -0.103665      -0.000167
      5 C                     0.071560       0.533073
      6 N                    -0.413244      -0.167843
      7 H                     0.163822      -0.026232
      8 H                     0.152558      -0.005789
      9 H                     0.152510      -0.005916
     10 H                     0.229980       0.001448
     11 H                     0.163510      -0.026194
     12 C                    -0.351178      -0.000081
     13 H                     0.173089       0.000017
  --------------------------------------------------------
  Sum of atomic charges =    -0.000000

                    Cartesian Multipole Moments
 -----------------------------------------------------------------
    Charge (ESU x 10^10)
                 0.0000
    Dipole Moment (Debye)
         X       2.3968      Y       0.0744      Z      -2.0883
       Tot       3.1798
    Quadrupole Moments (Debye-Ang)
        XX     -36.1379     XY      -1.6856     YY     -41.9922
        XZ      -0.9152     YZ      -2.6578     ZZ     -36.5095

 Total job time:  114.81s(wall), 145.41s(cpu)
        *  Thank you very much for using Q-Chem.  Have a nice day.  *
