 Q-Chem 5.0, Q-Chem, Inc., Pleasanton, CA (2017)
 Q-Chem 5.0.2 for Intel X86 EM64T Linux

User input:
--------------------------------------------------------------
$molecule
0 2
C        1.9428671549    0.1644130201   -0.5816694291
C        1.1171166541   -0.7250166629   -0.0036560302
C       -0.2927840060   -0.2256916522   -0.2056906425
C       -1.0511201092    0.0417131585    1.0956345203
C       -0.0024048681    1.0452593303   -0.9825406061
N        1.2505041428    1.2579809599   -1.1897213086
H        3.0249701578    0.1420497572   -0.6411949128
H        1.3785570708   -1.6314259533    0.5273052169
H       -0.8804660219   -0.9148225955   -0.8298881231
H       -0.5399779417    0.7085944320    1.7925776609
H       -0.7717201054    1.7284287703   -1.3355947938
C       -2.2231320458   -0.4639088046    1.4017476031
H       -2.9524100829   -1.1275737599    0.9526908452
$end

$rem
method                b3lyp
basis                 6-31g(d)
unrestricted          true
symmetry              off
sym_ignore            true
incdft                false
incfock               0
scf_convergence       8
thresh                14
jobtype               opt
scf_guess             core
scf_guess_mix         5
scf_algorithm         diis
max_scf_cycles        100
geom_opt_max_cycles   300
$end

--------------------------------------------------------------

   24    -286.8461971273      7.83E-09 Convergence criterion met
 Total energy in the final basis set = -286.84619713
   17    -286.8461983072      5.74E-09 Convergence criterion met
 Total energy in the final basis set = -286.84619831

             Standard Nuclear Orientation (Angstroms)
    I     Atom           X                Y                Z
 ----------------------------------------------------------------
    1      C       1.9427729284     0.1637899110    -0.5821900459
    2      C       1.1171349476    -0.7253102723    -0.0033664819
    3      C      -0.2925976564    -0.2259724162    -0.2058718949
    4      C      -1.0517695021     0.0429179530     1.0946638986
    5      C      -0.0023613579     1.0449118898    -0.9825827732
    6      N       1.2506552692     1.2575780343    -1.1896762431
    7      H       3.0249281025     0.1413379324    -0.6406777182
    8      H       1.3786042338    -1.6325201048     0.5262072608
    9      H      -0.8806735455    -0.9154780070    -0.8291406089
   10      H      -0.5418363338     0.7123688122     1.7898333208
   11      H      -0.7713822806     1.7302618721    -1.3318364409
   12      C      -2.2229689497    -0.4639660931     1.4013896000
   13      H      -2.9505058560    -1.1299195115     0.9532481269
 ----------------------------------------------------------------

   17    -286.8461985300      5.65E-09 Convergence criterion met
 Total energy in the final basis set = -286.84619853
 Final energy is   -286.846198530006
 **  OPTIMIZATION CONVERGED  **

                    Orbital Energies (a.u.)
 --------------------------------------------------------------

 Alpha MOs
 -- Occupied --
-14.333 -10.230 -10.219 -10.215 -10.214 -10.210 -10.195  -0.952
 -0.810  -0.750  -0.712  -0.591  -0.567  -0.554  -0.513  -0.471
 -0.430  -0.412  -0.396  -0.384  -0.349  -0.291  -0.266  -0.243
 -0.238

 Beta MOs
 -- Occupied --
-14.333 -10.230 -10.217 -10.214 -10.212 -10.199 -10.195  -0.952
 -0.804  -0.745  -0.702  -0.581  -0.558  -0.554  -0.511  -0.464
 -0.421  -0.408  -0.396  -0.381  -0.347  -0.286  -0.260  -0.240

          Ground-State Mulliken Net Atomic Charges

     Atom                 Charge (a.u.)    Spin (a.u.)
  --------------------------------------------------------
      1 C                     0.007186       0.006572
      2 C                    -0.126764      -0.003832
      3 C                    -0.249630       0.073671
      4 C                    -0.093175      -0.162765
      5 C                     0.081768       0.003993
      6 N                    -0.367254       0.003466
      7 H                     0.144171       0.000219
      8 H                     0.147799       0.000047
      9 H                     0.173918      -0.003355
     10 H                     0.161782       0.036372
     11 H                     0.153495      -0.000601
     12 C                    -0.194420       1.044566
     13 H                     0.161124       0.001647
  --------------------------------------------------------
  Sum of atomic charges =    -0.000000

                    Cartesian Multipole Moments
 -----------------------------------------------------------------
    Charge (ESU x 10^10)
                -0.0000
    Dipole Moment (Debye)
         X      -0.9701      Y      -1.6597      Z       0.3337
       Tot       1.9512
    Quadrupole Moments (Debye-Ang)
        XX     -38.8699     XY      -1.8284     YY     -42.0814
        XZ       4.0795     YZ       2.1186     ZZ     -44.0752

 Total job time:  122.67s(wall), 173.20s(cpu)
        *  Thank you very much for using Q-Chem.  Have a nice day.  *
