 Q-Chem 5.0, Q-Chem, Inc., Pleasanton, CA (2017)
 Q-Chem 5.0.2 for Intel X86 EM64T Linux

User input:
--------------------------------------------------------------
$molecule
0 2
C        1.9063151814    0.3292779489   -0.3180490561
C        1.1441999447   -0.8112563772   -0.2503251794
C       -0.1781338786   -0.4109257955   -0.6389686043
C       -1.1104992627    0.0280051834    1.1975156102
C       -0.0266968393    1.0138124732   -1.0002505091
N        1.1817313218    1.4526926690   -0.7720001200
H        2.9578538757    0.4446261236   -0.0793471201
H        1.4553183598   -1.8001772457    0.0583286899
H       -0.9416912865   -1.0669069680   -1.0377361091
H       -0.3122885497    0.6107223444    1.6205031040
H       -0.8203896716    1.6616492494   -1.3598400102
C       -2.2441132239   -0.4466211426    1.3710086866
H       -3.1576703712   -0.9779510925    1.2075366802
$end

$rem
method                b3lyp
basis                 6-31+g(d,p)
unrestricted          true
symmetry              off
sym_ignore            true
incdft                false
incfock               0
scf_convergence       8
thresh                14
jobtype               sp
scf_guess             core
scf_guess_mix         5
scf_algorithm         diis
max_scf_cycles        100
$end

--------------------------------------------------------------

             Standard Nuclear Orientation (Angstroms)
    I     Atom           X                Y                Z
 ----------------------------------------------------------------
    1      C       1.9063151814     0.3292779489    -0.3180490561
    2      C       1.1441999447    -0.8112563772    -0.2503251794
    3      C      -0.1781338786    -0.4109257955    -0.6389686043
    4      C      -1.1104992627     0.0280051834     1.1975156102
    5      C      -0.0266968393     1.0138124732    -1.0002505091
    6      N       1.1817313218     1.4526926690    -0.7720001200
    7      H       2.9578538757     0.4446261236    -0.0793471201
    8      H       1.4553183598    -1.8001772457     0.0583286899
    9      H      -0.9416912865    -1.0669069680    -1.0377361091
   10      H      -0.3122885497     0.6107223444     1.6205031040
   11      H      -0.8203896716     1.6616492494    -1.3598400102
   12      C      -2.2441132239    -0.4466211426     1.3710086866
   13      H      -3.1576703712    -0.9779510925     1.2075366802
 ----------------------------------------------------------------

   25    -286.8390714048      4.86E-09 Convergence criterion met
 Total energy in the final basis set = -286.83907140

                    Orbital Energies (a.u.)
 --------------------------------------------------------------

 Alpha MOs
 -- Occupied --
-14.332 -10.235 -10.233 -10.233 -10.231 -10.225 -10.192  -0.960
 -0.795  -0.767  -0.723  -0.593  -0.575  -0.560  -0.523  -0.505
 -0.421  -0.415  -0.402  -0.396  -0.339  -0.316  -0.275  -0.249
 -0.225

 Beta MOs
 -- Occupied --
-14.332 -10.238 -10.231 -10.227 -10.223 -10.222 -10.194  -0.955
 -0.786  -0.761  -0.711  -0.586  -0.571  -0.555  -0.521  -0.500
 -0.418  -0.402  -0.397  -0.390  -0.320  -0.311  -0.273  -0.242

          Ground-State Mulliken Net Atomic Charges

     Atom                 Charge (a.u.)    Spin (a.u.)
  --------------------------------------------------------
      1 C                    -0.084025       0.289544
      2 C                    -0.153731      -0.167293
      3 C                    -0.014199       0.429315
      4 C                    -0.044200      -0.209123
      5 C                    -0.197949       0.142351
      6 N                    -0.212776       0.000852
      7 H                     0.132164      -0.013522
      8 H                     0.132459       0.005197
      9 H                     0.145688      -0.020693
     10 H                     0.194292       0.028073
     11 H                     0.136638      -0.009238
     12 C                    -0.214563       0.544471
     13 H                     0.180202      -0.019935
  --------------------------------------------------------
  Sum of atomic charges =    -0.000000

                    Cartesian Multipole Moments
 -----------------------------------------------------------------
    Charge (ESU x 10^10)
                -0.0000
    Dipole Moment (Debye)
         X      -2.0711      Y      -2.3903      Z       0.5737
       Tot       3.2144
    Quadrupole Moments (Debye-Ang)
        XX     -36.6049     XY      -1.0155     YY     -45.5122
        XZ       3.1121     YZ       1.5490     ZZ     -44.0437

 Total job time:  78.90s(wall), 126.73s(cpu)
        *  Thank you very much for using Q-Chem.  Have a nice day.  *
