 Q-Chem 5.0, Q-Chem, Inc., Pleasanton, CA (2017)
 Q-Chem 5.0.2 for Intel X86 EM64T Linux

User input:
--------------------------------------------------------------
$molecule
0 2
C        1.9395303481    0.3167227627   -0.2716197758
C        1.2152925273   -0.8374705696   -0.3068296899
C       -0.1278669726   -0.4550911071   -0.7390766687
C       -1.3235009169   -0.0658773992    1.1143548047
C        0.0232787705    1.0100529264   -0.9808529138
N        1.2011261364    1.4617146808   -0.6843144720
H        2.9912481893    0.4260683257   -0.0215236962
H        1.6196899290   -1.8277380630   -0.1291657662
H       -0.5439899912   -1.0237637548   -1.5834924251
H       -0.6080677909    0.6532956800    1.5064618306
H       -0.7617349168    1.6392261426   -1.3857299544
C       -2.4146828689   -0.4024809309    1.6268640366
H       -3.3563868433   -0.8677113598    1.8533007529
$end

$rem
method                b3lyp
basis                 6-31g(d)
unrestricted          true
symmetry              off
sym_ignore            true
incdft                false
incfock               0
scf_convergence       8
thresh                14
jobtype               freq
scf_guess             read
scf_algorithm         diis
max_scf_cycles        100
$end

--------------------------------------------------------------

             Standard Nuclear Orientation (Angstroms)
    I     Atom           X                Y                Z
 ----------------------------------------------------------------
    1      C       1.9395303481     0.3167227627    -0.2716197758
    2      C       1.2152925273    -0.8374705696    -0.3068296899
    3      C      -0.1278669726    -0.4550911071    -0.7390766687
    4      C      -1.3235009169    -0.0658773992     1.1143548047
    5      C       0.0232787705     1.0100529264    -0.9808529138
    6      N       1.2011261364     1.4617146808    -0.6843144720
    7      H       2.9912481893     0.4260683257    -0.0215236962
    8      H       1.6196899290    -1.8277380630    -0.1291657662
    9      H      -0.5439899912    -1.0237637548    -1.5834924251
   10      H      -0.6080677909     0.6532956800     1.5064618306
   11      H      -0.7617349168     1.6392261426    -1.3857299544
   12      C      -2.4146828689    -0.4024809309     1.6268640366
   13      H      -3.3563868433    -0.8677113598     1.8533007529
 ----------------------------------------------------------------

    2    -286.7903641640      3.17E-09 Convergence criterion met
 Total energy in the final basis set = -286.79036416

                    Orbital Energies (a.u.)
 --------------------------------------------------------------

 Alpha MOs
 -- Occupied --
-14.321 -10.225 -10.222 -10.220 -10.215 -10.215 -10.184  -0.947
 -0.771  -0.757  -0.713  -0.577  -0.564  -0.549  -0.504  -0.476
 -0.414  -0.400  -0.389  -0.371  -0.326  -0.295  -0.264  -0.241
 -0.217

 Beta MOs
 -- Occupied --
-14.321 -10.220 -10.219 -10.217 -10.212 -10.212 -10.186  -0.942
 -0.763  -0.751  -0.701  -0.569  -0.560  -0.545  -0.501  -0.471
 -0.408  -0.393  -0.385  -0.361  -0.310  -0.291  -0.260  -0.234

          Ground-State Mulliken Net Atomic Charges

     Atom                 Charge (a.u.)    Spin (a.u.)
  --------------------------------------------------------
      1 C                     0.011845       0.254739
      2 C                    -0.137756      -0.153669
      3 C                    -0.186211       0.513969
      4 C                    -0.214472      -0.259240
      5 C                     0.058758       0.122144
      6 N                    -0.379772      -0.005780
      7 H                     0.141550      -0.011189
      8 H                     0.139840       0.005424
      9 H                     0.159517      -0.025980
     10 H                     0.209790       0.030562
     11 H                     0.148309      -0.008113
     12 C                    -0.147000       0.556268
     13 H                     0.195602      -0.019134
  --------------------------------------------------------
  Sum of atomic charges =    -0.000000

                    Cartesian Multipole Moments
 -----------------------------------------------------------------
    Charge (ESU x 10^10)
                -0.0000
    Dipole Moment (Debye)
         X      -1.6930      Y      -1.9569      Z       0.4430
       Tot       2.6253
    Quadrupole Moments (Debye-Ang)
        XX     -34.7122     XY      -1.7586     YY     -43.8347
        XZ      -0.1820     YZ       1.2360     ZZ     -39.6268

 Frequency:      -435.86                  19.61                 111.28
 Force Cnst:      0.8712                 0.0006                 0.0361
 Red. Mass:       7.7832                 2.4871                 4.9547
 IR Intens:        4.813                  0.353                  0.775
 Frequency:       204.21                 275.44                 508.87
 Force Cnst:      0.0798                 0.1458                 0.3651
 Red. Mass:       3.2484                 3.2620                 2.3930
 IR Intens:        1.230                  1.204                 10.061
 Frequency:       576.87                 645.49                 666.34
 Force Cnst:      0.6503                 0.3259                 0.4387
 Red. Mass:       3.3168                 1.3275                 1.6769
 IR Intens:       11.313                126.816                  9.886
 Frequency:       746.18                 760.49                 772.89
 Force Cnst:      0.4308                 0.4063                 0.4643
 Red. Mass:       1.3132                 1.1925                 1.3191
 IR Intens:       11.674                 49.889                 45.509
 Frequency:       824.40                 848.40                 881.49
 Force Cnst:      0.9595                 1.5476                 0.9817
 Red. Mass:       2.3962                 3.6493                 2.1444
 IR Intens:        6.843                 13.472                 15.662
 Frequency:       926.87                 954.32                 972.74
 Force Cnst:      0.7245                 0.6427                 1.2263
 Red. Mass:       1.4313                 1.1978                 2.1997
 IR Intens:        2.027                 31.064                 20.869
 Frequency:      1011.04                1038.36                1141.44
 Force Cnst:      0.9126                 2.5666                 0.9891
 Red. Mass:       1.5152                 4.0403                 1.2884
 IR Intens:        8.142                 16.705                  5.539
 Frequency:      1276.00                1300.09                1371.38
 Force Cnst:      1.5875                 1.4693                 2.0386
 Red. Mass:       1.6548                 1.4755                 1.8398
 IR Intens:       19.881                  5.036                 45.661
 Frequency:      1498.13                1601.10                1778.03
 Force Cnst:      5.8537                 8.1581                 8.7846
 Red. Mass:       4.4267                 5.4014                 4.7162
 IR Intens:        3.177                 63.589                  2.954
 Frequency:      3086.34                3215.01                3216.81
 Force Cnst:      6.0984                 6.6372                 6.6918
 Red. Mass:       1.0866                 1.0899                 1.0976
 IR Intens:        5.009                  8.098                 25.219
 Frequency:      3232.46                3243.97                3401.77
 Force Cnst:      6.7295                 6.8316                 7.7375
 Red. Mass:       1.0931                 1.1018                 1.1349
 IR Intens:       12.967                  8.250                 34.949

 STANDARD THERMODYNAMIC QUANTITIES AT   298.15 K  AND     1.00 ATM

   This Molecule has  1 Imaginary Frequencies
   Zero point vibrational energy:       60.196 kcal/mol

   Atom    1 Element C  Has Mass   12.00000
   Atom    2 Element C  Has Mass   12.00000
   Atom    3 Element C  Has Mass   12.00000
   Atom    4 Element C  Has Mass   12.00000
   Atom    5 Element C  Has Mass   12.00000
   Atom    6 Element N  Has Mass   14.00307
   Atom    7 Element H  Has Mass    1.00783
   Atom    8 Element H  Has Mass    1.00783
   Atom    9 Element H  Has Mass    1.00783
   Atom   10 Element H  Has Mass    1.00783
   Atom   11 Element H  Has Mass    1.00783
   Atom   12 Element C  Has Mass   12.00000
   Atom   13 Element H  Has Mass    1.00783
   Molecular Mass:    92.050050 amu
   Principal axes and moments of inertia in amu*Bohr^2:
                             1           2           3
    Eigenvalues --      307.36150  1024.00855  1124.07002
          X               0.85033    -0.35144     0.39171
          Y               0.21243     0.91022     0.35550
          Z              -0.48147    -0.21908     0.84864
   Rotational Symmetry Number is   1
   The Molecule is an Asymmetric Top
   Translational Enthalpy:        0.889 kcal/mol
   Rotational Enthalpy:           0.889 kcal/mol
   Vibrational Enthalpy:         62.709 kcal/mol
   gas constant (RT):             0.592 kcal/mol
   Translational Entropy:        39.471  cal/mol.K
   Rotational Entropy:           27.361  cal/mol.K
   Vibrational Entropy:          17.333  cal/mol.K

   Total Enthalpy:               65.079 kcal/mol
   Total Entropy:                84.165  cal/mol.K

 Total job time:  292.11s(wall), 246.32s(cpu)
        *  Thank you very much for using Q-Chem.  Have a nice day.  *
