 Q-Chem 5.0, Q-Chem, Inc., Pleasanton, CA (2017)
 Q-Chem 5.0.2 for Intel X86 EM64T Linux

User input:
--------------------------------------------------------------
$molecule
0 2
C        1.9395303481    0.3167227627   -0.2716197758
C        1.2152925273   -0.8374705696   -0.3068296899
C       -0.1278669726   -0.4550911071   -0.7390766687
C       -1.3235009169   -0.0658773992    1.1143548047
C        0.0232787705    1.0100529264   -0.9808529138
N        1.2011261364    1.4617146808   -0.6843144720
H        2.9912481893    0.4260683257   -0.0215236962
H        1.6196899290   -1.8277380630   -0.1291657662
H       -0.5439899912   -1.0237637548   -1.5834924251
H       -0.6080677909    0.6532956800    1.5064618306
H       -0.7617349168    1.6392261426   -1.3857299544
C       -2.4146828689   -0.4024809309    1.6268640366
H       -3.3563868433   -0.8677113598    1.8533007529
$end

$rem
method                b3lyp
basis                 6-31g(d)
unrestricted          true
symmetry              off
sym_ignore            true
incdft                false
incfock               0
scf_convergence       8
thresh                14
jobtype               sp
scf_guess             core
scf_guess_mix         5
scf_algorithm         diis
max_scf_cycles        100
$end

--------------------------------------------------------------

             Standard Nuclear Orientation (Angstroms)
    I     Atom           X                Y                Z
 ----------------------------------------------------------------
    1      C       1.9395303481     0.3167227627    -0.2716197758
    2      C       1.2152925273    -0.8374705696    -0.3068296899
    3      C      -0.1278669726    -0.4550911071    -0.7390766687
    4      C      -1.3235009169    -0.0658773992     1.1143548047
    5      C       0.0232787705     1.0100529264    -0.9808529138
    6      N       1.2011261364     1.4617146808    -0.6843144720
    7      H       2.9912481893     0.4260683257    -0.0215236962
    8      H       1.6196899290    -1.8277380630    -0.1291657662
    9      H      -0.5439899912    -1.0237637548    -1.5834924251
   10      H      -0.6080677909     0.6532956800     1.5064618306
   11      H      -0.7617349168     1.6392261426    -1.3857299544
   12      C      -2.4146828689    -0.4024809309     1.6268640366
   13      H      -3.3563868433    -0.8677113598     1.8533007529
 ----------------------------------------------------------------

   25    -286.7903641640      7.79E-09 Convergence criterion met
 Total energy in the final basis set = -286.79036416

                    Orbital Energies (a.u.)
 --------------------------------------------------------------

 Alpha MOs
 -- Occupied --
-14.321 -10.225 -10.222 -10.220 -10.215 -10.215 -10.184  -0.947
 -0.771  -0.757  -0.713  -0.577  -0.564  -0.549  -0.504  -0.476
 -0.414  -0.400  -0.389  -0.371  -0.326  -0.295  -0.264  -0.241
 -0.217

 Beta MOs
 -- Occupied --
-14.321 -10.220 -10.219 -10.217 -10.212 -10.212 -10.186  -0.942
 -0.763  -0.751  -0.701  -0.569  -0.560  -0.545  -0.501  -0.471
 -0.408  -0.393  -0.385  -0.361  -0.310  -0.291  -0.260  -0.234

          Ground-State Mulliken Net Atomic Charges

     Atom                 Charge (a.u.)    Spin (a.u.)
  --------------------------------------------------------
      1 C                     0.011845       0.254738
      2 C                    -0.137756      -0.153667
      3 C                    -0.186211       0.513967
      4 C                    -0.214472      -0.259261
      5 C                     0.058758       0.122146
      6 N                    -0.379772      -0.005782
      7 H                     0.141550      -0.011189
      8 H                     0.139840       0.005423
      9 H                     0.159518      -0.025980
     10 H                     0.209790       0.030564
     11 H                     0.148309      -0.008113
     12 C                    -0.147000       0.556290
     13 H                     0.195602      -0.019136
  --------------------------------------------------------
  Sum of atomic charges =    -0.000000

                    Cartesian Multipole Moments
 -----------------------------------------------------------------
    Charge (ESU x 10^10)
                -0.0000
    Dipole Moment (Debye)
         X      -1.6930      Y      -1.9569      Z       0.4430
       Tot       2.6253
    Quadrupole Moments (Debye-Ang)
        XX     -34.7122     XY      -1.7586     YY     -43.8347
        XZ      -0.1820     YZ       1.2360     ZZ     -39.6268

 Total job time:  61.88s(wall), 64.14s(cpu)
        *  Thank you very much for using Q-Chem.  Have a nice day.  *
