 Q-Chem 5.0, Q-Chem, Inc., Pleasanton, CA (2017)
 Q-Chem 5.0.2 for Intel X86 EM64T Linux

User input:
--------------------------------------------------------------
$molecule
0 2
C        1.9141397488    0.3228992214   -0.3222140275
C        1.1377290444   -0.8080480643   -0.2431537818
C       -0.1835494367   -0.3963603124   -0.6343481699
C       -1.1193784953    0.0301946131    1.1969463166
C       -0.0184805764    1.0244741536   -1.0077639561
N        1.1973122050    1.4486877280   -0.7857587008
H        2.9665887570    0.4287378430   -0.0881005262
H        1.4396850341   -1.7971784610    0.0723039546
H       -0.9471107119   -1.0473971265   -1.0402204334
H       -0.3367311861    0.6321773235    1.6228460831
H       -0.8029786575    1.6788066326   -1.3730686420
C       -2.2437898771   -0.4705950300    1.3740862164
H       -3.1495002484   -1.0194511505    1.2268217294
$end

$rem
method                b3lyp
basis                 6-31+g(d,p)
unrestricted          true
symmetry              off
sym_ignore            true
incdft                false
incfock               0
scf_convergence       8
thresh                14
jobtype               freq
scf_guess             read
scf_algorithm         diis
max_scf_cycles        100
$end

--------------------------------------------------------------

             Standard Nuclear Orientation (Angstroms)
    I     Atom           X                Y                Z
 ----------------------------------------------------------------
    1      C       1.9141397488     0.3228992214    -0.3222140275
    2      C       1.1377290444    -0.8080480643    -0.2431537818
    3      C      -0.1835494367    -0.3963603124    -0.6343481699
    4      C      -1.1193784953     0.0301946131     1.1969463166
    5      C      -0.0184805764     1.0244741536    -1.0077639561
    6      N       1.1973122050     1.4486877280    -0.7857587008
    7      H       2.9665887570     0.4287378430    -0.0881005262
    8      H       1.4396850341    -1.7971784610     0.0723039546
    9      H      -0.9471107119    -1.0473971265    -1.0402204334
   10      H      -0.3367311861     0.6321773235     1.6228460831
   11      H      -0.8029786575     1.6788066326    -1.3730686420
   12      C      -2.2437898771    -0.4705950300     1.3740862164
   13      H      -3.1495002484    -1.0194511505     1.2268217294
 ----------------------------------------------------------------

    2    -286.8391123587      2.01E-09 Convergence criterion met
 Total energy in the final basis set = -286.83911236

                    Orbital Energies (a.u.)
 --------------------------------------------------------------

 Alpha MOs
 -- Occupied --
-14.332 -10.236 -10.233 -10.232 -10.231 -10.225 -10.192  -0.959
 -0.794  -0.766  -0.723  -0.594  -0.575  -0.560  -0.523  -0.505
 -0.421  -0.415  -0.402  -0.396  -0.339  -0.316  -0.274  -0.248
 -0.225

 Beta MOs
 -- Occupied --
-14.332 -10.239 -10.230 -10.227 -10.224 -10.221 -10.194  -0.954
 -0.786  -0.760  -0.711  -0.586  -0.571  -0.555  -0.520  -0.500
 -0.418  -0.402  -0.397  -0.390  -0.320  -0.311  -0.272  -0.241

          Ground-State Mulliken Net Atomic Charges

     Atom                 Charge (a.u.)    Spin (a.u.)
  --------------------------------------------------------
      1 C                    -0.085926       0.279907
      2 C                    -0.155699      -0.163515
      3 C                    -0.011771       0.428444
      4 C                    -0.054719      -0.211841
      5 C                    -0.195946       0.135239
      6 N                    -0.212820       0.005782
      7 H                     0.132286      -0.013058
      8 H                     0.132299       0.005085
      9 H                     0.145810      -0.020695
     10 H                     0.193811       0.028368
     11 H                     0.136675      -0.008865
     12 C                    -0.204829       0.555791
     13 H                     0.180828      -0.020641
  --------------------------------------------------------
  Sum of atomic charges =    -0.000000

                    Cartesian Multipole Moments
 -----------------------------------------------------------------
    Charge (ESU x 10^10)
                -0.0000
    Dipole Moment (Debye)
         X      -2.1086      Y      -2.3838      Z       0.6156
       Tot       3.2416
    Quadrupole Moments (Debye-Ang)
        XX     -36.7340     XY      -0.9956     YY     -45.3819
        XZ       3.0599     YZ       1.5381     ZZ     -44.0232

 Frequency:      -580.06                  66.77                 128.51
 Force Cnst:      1.7040                 0.0073                 0.0485
 Red. Mass:       8.5957                 2.7673                 4.9808
 IR Intens:        2.358                  0.309                  0.986
 Frequency:       208.86                 260.08                 508.87
 Force Cnst:      0.0712                 0.1210                 0.2803
 Red. Mass:       2.7721                 3.0372                 1.8371
 IR Intens:        2.251                  0.006                 47.437
 Frequency:       567.52                 596.11                 618.10
 Force Cnst:      0.4207                 0.5822                 0.3831
 Red. Mass:       2.2171                 2.7808                 1.7021
 IR Intens:      107.184                  7.090                  4.752
 Frequency:       758.14                 770.07                 814.07
 Force Cnst:      0.3780                 0.4245                 1.7214
 Red. Mass:       1.1161                 1.2150                 4.4086
 IR Intens:       70.486                 50.938                 10.369
 Frequency:       834.01                 873.21                 889.83
 Force Cnst:      0.5317                 2.1103                 0.6148
 Red. Mass:       1.2974                 4.6975                 1.3178
 IR Intens:       27.588                  0.343                 19.959
 Frequency:       916.11                 942.75                 985.30
 Force Cnst:      0.6812                 0.6669                 1.1360
 Red. Mass:       1.3776                 1.2736                 1.9861
 IR Intens:        2.622                  3.290                 24.187
 Frequency:      1018.23                1059.95                1125.63
 Force Cnst:      0.8215                 2.5631                 1.1226
 Red. Mass:       1.3448                 3.8720                 1.5038
 IR Intens:        8.842                 16.135                  9.681
 Frequency:      1282.46                1304.66                1365.70
 Force Cnst:      1.2263                 2.2210                 2.4496
 Red. Mass:       1.2655                 2.2147                 2.2291
 IR Intens:        8.776                 14.017                 73.028
 Frequency:      1467.79                1557.23                1819.02
 Force Cnst:      4.9720                 6.4032                 8.6770
 Red. Mass:       3.9170                 4.4817                 4.4509
 IR Intens:       11.353                 57.575                  1.175
 Frequency:      3218.29                3235.62                3241.35
 Force Cnst:      6.6645                 6.7276                 6.7693
 Red. Mass:       1.0921                 1.0907                 1.0936
 IR Intens:        4.638                  3.516                  7.755
 Frequency:      3267.53                3333.32                3445.38
 Force Cnst:      6.9365                 7.2146                 8.0284
 Red. Mass:       1.1027                 1.1021                 1.1479
 IR Intens:        3.647                 31.865                 36.190

 STANDARD THERMODYNAMIC QUANTITIES AT   298.15 K  AND     1.00 ATM

   This Molecule has  1 Imaginary Frequencies
   Zero point vibrational energy:       60.729 kcal/mol

   Atom    1 Element C  Has Mass   12.00000
   Atom    2 Element C  Has Mass   12.00000
   Atom    3 Element C  Has Mass   12.00000
   Atom    4 Element C  Has Mass   12.00000
   Atom    5 Element C  Has Mass   12.00000
   Atom    6 Element N  Has Mass   14.00307
   Atom    7 Element H  Has Mass    1.00783
   Atom    8 Element H  Has Mass    1.00783
   Atom    9 Element H  Has Mass    1.00783
   Atom   10 Element H  Has Mass    1.00783
   Atom   11 Element H  Has Mass    1.00783
   Atom   12 Element C  Has Mass   12.00000
   Atom   13 Element H  Has Mass    1.00783
   Molecular Mass:    92.050050 amu
   Principal axes and moments of inertia in amu*Bohr^2:
                             1           2           3
    Eigenvalues --      296.02930   916.70564  1023.20587
          X               0.84419    -0.42418     0.32774
          Y               0.25656     0.85656     0.44776
          Z              -0.47066    -0.29391     0.83192
   Rotational Symmetry Number is   1
   The Molecule is an Asymmetric Top
   Translational Enthalpy:        0.889 kcal/mol
   Rotational Enthalpy:           0.889 kcal/mol
   Vibrational Enthalpy:         63.184 kcal/mol
   gas constant (RT):             0.592 kcal/mol
   Translational Entropy:        39.471  cal/mol.K
   Rotational Entropy:           27.120  cal/mol.K
   Vibrational Entropy:          14.773  cal/mol.K

   Total Enthalpy:               65.554 kcal/mol
   Total Entropy:                81.364  cal/mol.K

 Total job time:  663.00s(wall), 546.83s(cpu)
        *  Thank you very much for using Q-Chem.  Have a nice day.  *
