 Q-Chem 5.0, Q-Chem, Inc., Pleasanton, CA (2017)
 Q-Chem 5.0.2 for Intel X86 EM64T Linux

User input:
--------------------------------------------------------------
$molecule
0 2
C        1.9063151814    0.3292779489   -0.3180490561
C        1.1441999447   -0.8112563772   -0.2503251794
C       -0.1781338786   -0.4109257955   -0.6389686043
C       -1.1104992627    0.0280051834    1.1975156102
C       -0.0266968393    1.0138124732   -1.0002505091
N        1.1817313218    1.4526926690   -0.7720001200
H        2.9578538757    0.4446261236   -0.0793471201
H        1.4553183598   -1.8001772457    0.0583286899
H       -0.9416912865   -1.0669069680   -1.0377361091
H       -0.3122885497    0.6107223444    1.6205031040
H       -0.8203896716    1.6616492494   -1.3598400102
C       -2.2441132239   -0.4466211426    1.3710086866
H       -3.1576703712   -0.9779510925    1.2075366802
$end

$rem
method                b3lyp
basis                 6-31+g(d,p)
unrestricted          true
symmetry              off
sym_ignore            true
incdft                false
incfock               0
scf_convergence       8
thresh                14
jobtype               ts
scf_guess             read
scf_algorithm         diis
max_scf_cycles        100
geom_opt_max_cycles   500
geom_opt_dmax         100
geom_opt_tol_gradient 10
geom_opt_hessian      read
$end

--------------------------------------------------------------

    2    -286.8390714048      5.93E-10 Convergence criterion met
 Total energy in the final basis set = -286.83907140
   15    -286.8391079233      3.73E-09 Convergence criterion met
 Total energy in the final basis set = -286.83910792
   14    -286.8391123421      4.44E-09 Convergence criterion met
 Total energy in the final basis set = -286.83911234

             Standard Nuclear Orientation (Angstroms)
    I     Atom           X                Y                Z
 ----------------------------------------------------------------
    1      C       1.9141397488     0.3228992214    -0.3222140275
    2      C       1.1377290444    -0.8080480643    -0.2431537818
    3      C      -0.1835494367    -0.3963603124    -0.6343481699
    4      C      -1.1193784953     0.0301946131     1.1969463166
    5      C      -0.0184805764     1.0244741536    -1.0077639561
    6      N       1.1973122050     1.4486877280    -0.7857587008
    7      H       2.9665887570     0.4287378430    -0.0881005262
    8      H       1.4396850341    -1.7971784610     0.0723039546
    9      H      -0.9471107119    -1.0473971265    -1.0402204334
   10      H      -0.3367311861     0.6321773235     1.6228460831
   11      H      -0.8029786575     1.6788066326    -1.3730686420
   12      C      -2.2437898771    -0.4705950300     1.3740862164
   13      H      -3.1495002484    -1.0194511505     1.2268217294
 ----------------------------------------------------------------

    9    -286.8391123587      5.19E-09 Convergence criterion met
 Total energy in the final basis set = -286.83911236
 Final energy is   -286.839112358691
 **  OPTIMIZATION CONVERGED  **

                    Orbital Energies (a.u.)
 --------------------------------------------------------------

 Alpha MOs
 -- Occupied --
-14.332 -10.236 -10.233 -10.232 -10.231 -10.225 -10.192  -0.959
 -0.794  -0.766  -0.723  -0.594  -0.575  -0.560  -0.523  -0.505
 -0.421  -0.415  -0.402  -0.396  -0.339  -0.316  -0.274  -0.248
 -0.225

 Beta MOs
 -- Occupied --
-14.332 -10.239 -10.230 -10.227 -10.224 -10.221 -10.194  -0.954
 -0.786  -0.760  -0.711  -0.586  -0.571  -0.555  -0.520  -0.500
 -0.418  -0.402  -0.397  -0.390  -0.320  -0.311  -0.272  -0.241

          Ground-State Mulliken Net Atomic Charges

     Atom                 Charge (a.u.)    Spin (a.u.)
  --------------------------------------------------------
      1 C                    -0.085926       0.279902
      2 C                    -0.155699      -0.163512
      3 C                    -0.011771       0.428446
      4 C                    -0.054719      -0.211843
      5 C                    -0.195946       0.135233
      6 N                    -0.212820       0.005786
      7 H                     0.132286      -0.013058
      8 H                     0.132299       0.005085
      9 H                     0.145810      -0.020695
     10 H                     0.193811       0.028369
     11 H                     0.136675      -0.008865
     12 C                    -0.204829       0.555794
     13 H                     0.180828      -0.020641
  --------------------------------------------------------
  Sum of atomic charges =     0.000000

                    Cartesian Multipole Moments
 -----------------------------------------------------------------
    Charge (ESU x 10^10)
                 0.0000
    Dipole Moment (Debye)
         X      -2.1086      Y      -2.3838      Z       0.6156
       Tot       3.2416
    Quadrupole Moments (Debye-Ang)
        XX     -36.7340     XY      -0.9956     YY     -45.3819
        XZ       3.0599     YZ       1.5381     ZZ     -44.0232

 Total job time:  147.23s(wall), 270.18s(cpu)
        *  Thank you very much for using Q-Chem.  Have a nice day.  *
