 Q-Chem 5.0, Q-Chem, Inc., Pleasanton, CA (2017)
 Q-Chem 5.0.2 for Intel X86 EM64T Linux

User input:
--------------------------------------------------------------
$molecule
0 2
C        1.9063151814    0.3292779489   -0.3180490561
C        1.1441999447   -0.8112563772   -0.2503251794
C       -0.1781338786   -0.4109257955   -0.6389686043
C       -1.1104992627    0.0280051834    1.1975156102
C       -0.0266968393    1.0138124732   -1.0002505091
N        1.1817313218    1.4526926690   -0.7720001200
H        2.9578538757    0.4446261236   -0.0793471201
H        1.4553183598   -1.8001772457    0.0583286899
H       -0.9416912865   -1.0669069680   -1.0377361091
H       -0.3122885497    0.6107223444    1.6205031040
H       -0.8203896716    1.6616492494   -1.3598400102
C       -2.2441132239   -0.4466211426    1.3710086866
H       -3.1576703712   -0.9779510925    1.2075366802
$end

$rem
method                b3lyp
basis                 6-31+g(d,p)
unrestricted          true
symmetry              off
sym_ignore            true
incdft                false
incfock               0
scf_convergence       8
thresh                14
jobtype               freq
scf_guess             read
scf_algorithm         diis
max_scf_cycles        100
$end

--------------------------------------------------------------

             Standard Nuclear Orientation (Angstroms)
    I     Atom           X                Y                Z
 ----------------------------------------------------------------
    1      C       1.9063151814     0.3292779489    -0.3180490561
    2      C       1.1441999447    -0.8112563772    -0.2503251794
    3      C      -0.1781338786    -0.4109257955    -0.6389686043
    4      C      -1.1104992627     0.0280051834     1.1975156102
    5      C      -0.0266968393     1.0138124732    -1.0002505091
    6      N       1.1817313218     1.4526926690    -0.7720001200
    7      H       2.9578538757     0.4446261236    -0.0793471201
    8      H       1.4553183598    -1.8001772457     0.0583286899
    9      H      -0.9416912865    -1.0669069680    -1.0377361091
   10      H      -0.3122885497     0.6107223444     1.6205031040
   11      H      -0.8203896716     1.6616492494    -1.3598400102
   12      C      -2.2441132239    -0.4466211426     1.3710086866
   13      H      -3.1576703712    -0.9779510925     1.2075366802
 ----------------------------------------------------------------

    2    -286.8390714049      1.99E-09 Convergence criterion met
 Total energy in the final basis set = -286.83907140

                    Orbital Energies (a.u.)
 --------------------------------------------------------------

 Alpha MOs
 -- Occupied --
-14.332 -10.235 -10.233 -10.233 -10.231 -10.225 -10.192  -0.960
 -0.795  -0.767  -0.723  -0.593  -0.575  -0.560  -0.523  -0.505
 -0.421  -0.415  -0.402  -0.396  -0.339  -0.316  -0.275  -0.249
 -0.225

 Beta MOs
 -- Occupied --
-14.332 -10.238 -10.231 -10.227 -10.223 -10.222 -10.194  -0.955
 -0.786  -0.761  -0.711  -0.586  -0.571  -0.555  -0.521  -0.500
 -0.418  -0.402  -0.397  -0.390  -0.320  -0.311  -0.273  -0.242

          Ground-State Mulliken Net Atomic Charges

     Atom                 Charge (a.u.)    Spin (a.u.)
  --------------------------------------------------------
      1 C                    -0.084025       0.289546
      2 C                    -0.153731      -0.167295
      3 C                    -0.014199       0.429317
      4 C                    -0.044200      -0.209114
      5 C                    -0.197949       0.142350
      6 N                    -0.212776       0.000853
      7 H                     0.132164      -0.013522
      8 H                     0.132459       0.005197
      9 H                     0.145688      -0.020693
     10 H                     0.194292       0.028072
     11 H                     0.136638      -0.009237
     12 C                    -0.214563       0.544461
     13 H                     0.180202      -0.019934
  --------------------------------------------------------
  Sum of atomic charges =    -0.000000

                    Cartesian Multipole Moments
 -----------------------------------------------------------------
    Charge (ESU x 10^10)
                -0.0000
    Dipole Moment (Debye)
         X      -2.0711      Y      -2.3903      Z       0.5737
       Tot       3.2144
    Quadrupole Moments (Debye-Ang)
        XX     -36.6049     XY      -1.0155     YY     -45.5122
        XZ       3.1121     YZ       1.5491     ZZ     -44.0437

 Frequency:      -573.67                  41.67                 123.43
 Force Cnst:      1.6788                 0.0028                 0.0448
 Red. Mass:       8.6583                 2.7251                 4.9948
 IR Intens:        3.063                  0.267                  1.051
 Frequency:       205.65                 254.85                 513.92
 Force Cnst:      0.0718                 0.1205                 0.3063
 Red. Mass:       2.8815                 3.1481                 1.9685
 IR Intens:        2.166                  0.018                 34.500
 Frequency:       571.37                 596.51                 619.77
 Force Cnst:      0.4241                 0.5346                 0.3779
 Red. Mass:       2.2050                 2.5499                 1.6698
 IR Intens:      113.598                 15.964                  5.057
 Frequency:       760.09                 772.93                 814.83
 Force Cnst:      0.3777                 0.4282                 1.6550
 Red. Mass:       1.1096                 1.2166                 4.2307
 IR Intens:       70.894                 49.001                 13.697
 Frequency:       838.74                 873.95                 889.38
 Force Cnst:      0.5393                 2.0582                 0.6189
 Red. Mass:       1.3011                 4.5735                 1.3280
 IR Intens:       24.678                  0.406                 24.075
 Frequency:       919.71                 941.38                 987.33
 Force Cnst:      0.6885                 0.6628                 1.1396
 Red. Mass:       1.3816                 1.2695                 1.9842
 IR Intens:        2.326                  3.423                 23.075
 Frequency:      1021.05                1061.88                1128.94
 Force Cnst:      0.8205                 2.5694                 1.1388
 Red. Mass:       1.3359                 3.8675                 1.5165
 IR Intens:        9.040                 16.792                  9.965
 Frequency:      1286.29                1306.88                1369.61
 Force Cnst:      1.2288                 2.2353                 2.4824
 Red. Mass:       1.2605                 2.2213                 2.2461
 IR Intens:        8.454                 14.530                 76.377
 Frequency:      1469.94                1562.33                1832.73
 Force Cnst:      4.9519                 6.4363                 8.7610
 Red. Mass:       3.8898                 4.4755                 4.4270
 IR Intens:       10.706                 57.827                  1.102
 Frequency:      3209.82                3225.86                3238.19
 Force Cnst:      6.6315                 6.6919                 6.7531
 Red. Mass:       1.0924                 1.0915                 1.0931
 IR Intens:        5.467                  6.063                  5.819
 Frequency:      3263.07                3336.92                3444.57
 Force Cnst:      6.9163                 7.2260                 8.0436
 Red. Mass:       1.1025                 1.1014                 1.1506
 IR Intens:        3.182                 32.331                 33.247

 STANDARD THERMODYNAMIC QUANTITIES AT   298.15 K  AND     1.00 ATM

   This Molecule has  1 Imaginary Frequencies
   Zero point vibrational energy:       60.733 kcal/mol

   Atom    1 Element C  Has Mass   12.00000
   Atom    2 Element C  Has Mass   12.00000
   Atom    3 Element C  Has Mass   12.00000
   Atom    4 Element C  Has Mass   12.00000
   Atom    5 Element C  Has Mass   12.00000
   Atom    6 Element N  Has Mass   14.00307
   Atom    7 Element H  Has Mass    1.00783
   Atom    8 Element H  Has Mass    1.00783
   Atom    9 Element H  Has Mass    1.00783
   Atom   10 Element H  Has Mass    1.00783
   Atom   11 Element H  Has Mass    1.00783
   Atom   12 Element C  Has Mass   12.00000
   Atom   13 Element H  Has Mass    1.00783
   Molecular Mass:    92.050050 amu
   Principal axes and moments of inertia in amu*Bohr^2:
                             1           2           3
    Eigenvalues --      297.47653   910.88149  1015.77461
          X               0.84655    -0.41455     0.33393
          Y               0.25120     0.86418     0.43599
          Z              -0.46931    -0.28521     0.83570
   Rotational Symmetry Number is   1
   The Molecule is an Asymmetric Top
   Translational Enthalpy:        0.889 kcal/mol
   Rotational Enthalpy:           0.889 kcal/mol
   Vibrational Enthalpy:         63.227 kcal/mol
   gas constant (RT):             0.592 kcal/mol
   Translational Entropy:        39.471  cal/mol.K
   Rotational Entropy:           27.111  cal/mol.K
   Vibrational Entropy:          15.809  cal/mol.K

   Total Enthalpy:               65.597 kcal/mol
   Total Entropy:                82.391  cal/mol.K

 Total job time:  626.66s(wall), 545.05s(cpu)
        *  Thank you very much for using Q-Chem.  Have a nice day.  *
