 Q-Chem 5.0, Q-Chem, Inc., Pleasanton, CA (2017)
 Q-Chem 5.0.2 for Intel X86 EM64T Linux

User input:
--------------------------------------------------------------
$molecule
0 2
C        1.9063151814    0.3292779489   -0.3180490561
C        1.1441999447   -0.8112563772   -0.2503251794
C       -0.1781338786   -0.4109257955   -0.6389686043
C       -1.1104992627    0.0280051834    1.1975156102
C       -0.0266968393    1.0138124732   -1.0002505091
N        1.1817313218    1.4526926690   -0.7720001200
H        2.9578538757    0.4446261236   -0.0793471201
H        1.4553183598   -1.8001772457    0.0583286899
H       -0.9416912865   -1.0669069680   -1.0377361091
H       -0.3122885497    0.6107223444    1.6205031040
H       -0.8203896716    1.6616492494   -1.3598400102
C       -2.2441132239   -0.4466211426    1.3710086866
H       -3.1576703712   -0.9779510925    1.2075366802
$end

$rem
method                b3lyp
basis                 6-31g(d)
unrestricted          true
symmetry              off
sym_ignore            true
incdft                false
incfock               0
scf_convergence       8
thresh                14
jobtype               sp
scf_guess             read
scf_algorithm         diis
max_scf_cycles        100
$end

--------------------------------------------------------------

             Standard Nuclear Orientation (Angstroms)
    I     Atom           X                Y                Z
 ----------------------------------------------------------------
    1      C       1.9063151814     0.3292779489    -0.3180490561
    2      C       1.1441999447    -0.8112563772    -0.2503251794
    3      C      -0.1781338786    -0.4109257955    -0.6389686043
    4      C      -1.1104992627     0.0280051834     1.1975156102
    5      C      -0.0266968393     1.0138124732    -1.0002505091
    6      N       1.1817313218     1.4526926690    -0.7720001200
    7      H       2.9578538757     0.4446261236    -0.0793471201
    8      H       1.4553183598    -1.8001772457     0.0583286899
    9      H      -0.9416912865    -1.0669069680    -1.0377361091
   10      H      -0.3122885497     0.6107223444     1.6205031040
   11      H      -0.8203896716     1.6616492494    -1.3598400102
   12      C      -2.2441132239    -0.4466211426     1.3710086866
   13      H      -3.1576703712    -0.9779510925     1.2075366802
 ----------------------------------------------------------------

    2    -286.8139071010      6.37E-09 Convergence criterion met
 Total energy in the final basis set = -286.81390710

                    Orbital Energies (a.u.)
 --------------------------------------------------------------

 Alpha MOs
 -- Occupied --
-14.316 -10.222 -10.221 -10.220 -10.218 -10.213 -10.180  -0.945
 -0.782  -0.754  -0.711  -0.584  -0.564  -0.550  -0.513  -0.495
 -0.410  -0.403  -0.392  -0.385  -0.326  -0.302  -0.261  -0.236
 -0.212

 Beta MOs
 -- Occupied --
-14.316 -10.225 -10.218 -10.215 -10.210 -10.209 -10.181  -0.940
 -0.773  -0.748  -0.699  -0.577  -0.560  -0.545  -0.510  -0.490
 -0.407  -0.391  -0.386  -0.379  -0.307  -0.297  -0.258  -0.228

          Ground-State Mulliken Net Atomic Charges

     Atom                 Charge (a.u.)    Spin (a.u.)
  --------------------------------------------------------
      1 C                     0.001707       0.281160
      2 C                    -0.124879      -0.148909
      3 C                    -0.210565       0.406148
      4 C                    -0.167487      -0.226099
      5 C                     0.070790       0.149571
      6 N                    -0.392763       0.001313
      7 H                     0.140306      -0.013607
      8 H                     0.136903       0.005182
      9 H                     0.154269      -0.018872
     10 H                     0.214151       0.028528
     11 H                     0.146030      -0.009295
     12 C                    -0.162288       0.567689
     13 H                     0.193826      -0.022809
  --------------------------------------------------------
  Sum of atomic charges =     0.000000

                    Cartesian Multipole Moments
 -----------------------------------------------------------------
    Charge (ESU x 10^10)
                -0.0000
    Dipole Moment (Debye)
         X      -1.9646      Y      -2.1851      Z       0.6536
       Tot       3.0102
    Quadrupole Moments (Debye-Ang)
        XX     -35.2798     XY      -0.9207     YY     -43.6000
        XZ       2.5761     YZ       1.4617     ZZ     -42.0364

 Total job time:  17.73s(wall), 7.03s(cpu)
        *  Thank you very much for using Q-Chem.  Have a nice day.  *
