 Q-Chem 5.0, Q-Chem, Inc., Pleasanton, CA (2017)
 Q-Chem 5.0.2 for Intel X86 EM64T Linux

User input:
--------------------------------------------------------------
$molecule
0 2
C        1.4856136616    0.2509154291   -1.5660867272
C        0.6476358694   -0.9842672830   -1.3146896304
C       -0.5476324522   -0.6675886397   -2.0098306697
C       -1.0584862038    0.2665797760   -0.5611239848
C       -0.5713769564    0.8386113360   -2.1329123550
N        0.6056119578    1.3134663331   -1.8348489468
H        2.5035113864    0.1514526564   -1.9103810672
H        0.9798348313   -1.9467937127   -1.6536073315
H       -1.4900918358   -0.9265384280   -2.5581241274
H       -1.9973220781    0.7967245587   -0.4152929726
H       -1.1808258938    1.4842850665   -2.7401053963
C       -0.5534603541   -1.1191435202   -0.1241939467
H       -0.4107663201   -1.5753811221    0.9994342575
$end

$rem
method                b3lyp
basis                 6-31g(d)
unrestricted          true
symmetry              off
sym_ignore            true
incdft                false
incfock               0
scf_convergence       8
thresh                14
jobtype               opt
scf_guess             read
scf_algorithm         diis
max_scf_cycles        100
geom_opt_tol_gradient 600
geom_opt_tol_displacement 2400
geom_opt_tol_energy   200
geom_opt_max_cycles   100
$end

--------------------------------------------------------------

    2    -286.6432951556      2.43E-09 Convergence criterion met
 Total energy in the final basis set = -286.64329516
   17    -286.6830859683      9.29E-09 Convergence criterion met
 Total energy in the final basis set = -286.68308597
   19    -286.7148821035      2.74E-09 Convergence criterion met
 Total energy in the final basis set = -286.71488210
   18    -286.7389399923      7.97E-09 Convergence criterion met
 Total energy in the final basis set = -286.73893999
   16    -286.7586004289      9.02E-09 Convergence criterion met
 Total energy in the final basis set = -286.75860043
   15    -286.7752317607      9.58E-09 Convergence criterion met
 Total energy in the final basis set = -286.77523176
   15    -286.7892621549      8.48E-09 Convergence criterion met
 Total energy in the final basis set = -286.78926215
   15    -286.8008208377      7.64E-09 Convergence criterion met
   11    -286.8382420797      9.73E-09 Convergence criterion met
 Total energy in the final basis set = -286.83824208
   12    -286.8382649360      5.18E-09 Convergence criterion met
 Total energy in the final basis set = -286.83826494
   11    -286.8382899459      7.68E-09 Convergence criterion met
 Total energy in the final basis set = -286.83828995
   11    -286.8383116926      3.74E-09 Convergence criterion met
 Total energy in the final basis set = -286.83831169
   11    -286.8383240899      8.82E-09 Convergence criterion met
 Total energy in the final basis set = -286.83832409
   11    -286.8383278781      4.66E-09 Convergence criterion met
 Total energy in the final basis set = -286.83832788

             Standard Nuclear Orientation (Angstroms)
    I     Atom           X                Y                Z
 ----------------------------------------------------------------
    1      C       1.4252425401     0.0761998670    -1.6351449823
    2      C       0.4617497935    -1.0896652976    -1.4439624627
    3      C      -0.8348939560    -0.5427276866    -2.1437245584
    4      C      -1.2393508190     0.0490795759    -0.7800103948
    5      C      -0.5676887041     0.9053371675    -1.9492839294
    6      N       0.8414117996     1.1956427825    -1.8651908708
    7      H       2.4983498278     0.0159503506    -1.4606518286
    8      H       0.8388216127    -2.0971041674    -1.6330998532
    9      H      -1.4469695374    -1.0280072805    -2.8980289933
   10      H      -2.2103332342     0.3663159057    -0.4126618312
   11      H      -1.2120727338     1.6670526036    -2.3762328584
   12      C      -0.2492561105    -0.7937278384    -0.1249673224
   13      H       0.1072351335    -0.8420235324     0.9011969874
 ----------------------------------------------------------------

   10    -286.8383291407      4.89E-09 Convergence criterion met
 Total energy in the final basis set = -286.83832914
 Final energy is   -286.838329140711
 **  OPTIMIZATION CONVERGED  **

                    Orbital Energies (a.u.)
 --------------------------------------------------------------

 Alpha MOs
 -- Occupied --
-14.320 -10.224 -10.220 -10.210 -10.209 -10.208 -10.205  -0.968
 -0.856  -0.749  -0.664  -0.606  -0.571  -0.535  -0.517  -0.467
 -0.439  -0.405  -0.400  -0.356  -0.336  -0.298  -0.274  -0.256
 -0.182

 Beta MOs
 -- Occupied --
-14.319 -10.222 -10.219 -10.211 -10.209 -10.207 -10.193  -0.964
 -0.850  -0.741  -0.652  -0.601  -0.567  -0.528  -0.511  -0.461
 -0.434  -0.402  -0.393  -0.348  -0.332  -0.292  -0.262  -0.251

          Ground-State Mulliken Net Atomic Charges

     Atom                 Charge (a.u.)    Spin (a.u.)
  --------------------------------------------------------
      1 C                     0.088526       0.047782
      2 C                    -0.258781      -0.065812
      3 C                    -0.107936       0.077991
      4 C                    -0.163382      -0.096207
      5 C                    -0.019141       0.097737
      6 N                    -0.342030       0.038949
      7 H                     0.142993       0.001348
      8 H                     0.142912       0.022698
      9 H                     0.148109      -0.000741
     10 H                     0.147203       0.005286
     11 H                     0.151381       0.002807
     12 C                    -0.066158       0.887625
     13 H                     0.136304      -0.019464
  --------------------------------------------------------
  Sum of atomic charges =     0.000000

                    Cartesian Multipole Moments
 -----------------------------------------------------------------
    Charge (ESU x 10^10)
                 0.0000
    Dipole Moment (Debye)
         X      -0.9580      Y      -1.8074      Z       0.1629
       Tot       2.0521
    Quadrupole Moments (Debye-Ang)
        XX     -37.4636     XY      -4.2055     YY     -43.1742
        XZ       3.1551     YZ       3.6234     ZZ     -40.3038

 Total job time:  832.65s(wall), 1239.75s(cpu)
        *  Thank you very much for using Q-Chem.  Have a nice day.  *
