 Q-Chem 5.0, Q-Chem, Inc., Pleasanton, CA (2017)
 Q-Chem 5.0.2 for Intel X86 EM64T Linux

User input:
--------------------------------------------------------------
$molecule
0 2
C        1.2495551699    0.3389750283    0.1778005905
C        0.6708581651   -1.0453487099   -0.2388912651
C       -0.6712172310   -0.9027659458   -0.8204916817
C       -1.0485186997    0.2218108601    0.1562543388
C       -0.4927988167    1.4836210039   -0.4886893422
N        0.7887234714    1.5232100901   -0.5168968377
H        2.2837461598    0.3299321067    0.5034090820
H        1.3325875695   -1.9022636840   -0.3014600992
H       -1.3209131627   -1.7213484572   -1.1058995740
H       -2.0604529468    0.2553746251    0.5591483988
H       -1.0992199296    2.2288862140   -1.0000479475
C        0.1717115744   -0.2616104887    1.0145504969
H        0.1959386762   -0.5484726424    2.0612138403
$end

$rem
method                b3lyp
basis                 6-31+g(d,p)
unrestricted          true
symmetry              off
sym_ignore            true
incdft                false
incfock               0
scf_convergence       8
thresh                14
jobtype               sp
scf_guess             core
scf_guess_mix         5
scf_algorithm         diis
max_scf_cycles        100
$end

--------------------------------------------------------------

             Standard Nuclear Orientation (Angstroms)
    I     Atom           X                Y                Z
 ----------------------------------------------------------------
    1      C       1.2495551699     0.3389750283     0.1778005905
    2      C       0.6708581651    -1.0453487099    -0.2388912651
    3      C      -0.6712172310    -0.9027659458    -0.8204916817
    4      C      -1.0485186997     0.2218108601     0.1562543388
    5      C      -0.4927988167     1.4836210039    -0.4886893422
    6      N       0.7887234714     1.5232100901    -0.5168968377
    7      H       2.2837461598     0.3299321067     0.5034090820
    8      H       1.3325875695    -1.9022636840    -0.3014600992
    9      H      -1.3209131627    -1.7213484572    -1.1058995740
   10      H      -2.0604529468     0.2553746251     0.5591483988
   11      H      -1.0992199296     2.2288862140    -1.0000479475
   12      C       0.1717115744    -0.2616104887     1.0145504969
   13      H       0.1959386762    -0.5484726424     2.0612138403
 ----------------------------------------------------------------

   21    -286.8568834790      3.83E-09 Convergence criterion met
 Total energy in the final basis set = -286.85688348

                    Orbital Energies (a.u.)
 --------------------------------------------------------------

 Alpha MOs
 -- Occupied --
-14.334 -10.233 -10.231 -10.223 -10.221 -10.220 -10.211  -0.980
 -0.867  -0.760  -0.674  -0.615  -0.583  -0.549  -0.518  -0.465
 -0.450  -0.420  -0.410  -0.369  -0.344  -0.317  -0.282  -0.271
 -0.180

 Beta MOs
 -- Occupied --
-14.334 -10.233 -10.231 -10.221 -10.220 -10.220 -10.199  -0.976
 -0.861  -0.753  -0.661  -0.611  -0.579  -0.544  -0.511  -0.458
 -0.446  -0.415  -0.406  -0.361  -0.340  -0.305  -0.275  -0.266

          Ground-State Mulliken Net Atomic Charges

     Atom                 Charge (a.u.)    Spin (a.u.)
  --------------------------------------------------------
      1 C                    -0.252827       0.014773
      2 C                    -0.106186      -0.102142
      3 C                    -0.112514       1.000933
      4 C                    -0.108348      -0.087355
      5 C                    -0.012210      -0.001235
      6 N                    -0.177857       0.027084
      7 H                     0.144849       0.003269
      8 H                     0.140061       0.000402
      9 H                     0.136928      -0.040060
     10 H                     0.131454       0.008435
     11 H                     0.131910       0.001591
     12 C                    -0.050429       0.166592
     13 H                     0.135168       0.007713
  --------------------------------------------------------
  Sum of atomic charges =    -0.000000

                    Cartesian Multipole Moments
 -----------------------------------------------------------------
    Charge (ESU x 10^10)
                -0.0000
    Dipole Moment (Debye)
         X      -1.3090      Y      -1.9537      Z       1.7235
       Tot       2.9157
    Quadrupole Moments (Debye-Ang)
        XX     -38.7059     XY      -4.5148     YY     -43.5054
        XZ       2.0851     YZ       0.8553     ZZ     -43.0308

 Total job time:  28.56s(wall), 107.42s(cpu)
        *  Thank you very much for using Q-Chem.  Have a nice day.  *
