 Q-Chem 5.0, Q-Chem, Inc., Pleasanton, CA (2017)
 Q-Chem 5.0.2 for Intel X86 EM64T Linux

User input:
--------------------------------------------------------------
$molecule
0 2
C        1.3753758541    0.3969482137   -0.0639618535
C        0.7603872189   -0.9539701218   -0.2805048926
C       -0.6747272642   -0.9554674551   -0.6844018817
C       -1.0635046515    0.3359837711    0.1091190986
C       -0.4690142653    1.5472433738   -0.4949097924
N        0.8375368022    1.5652285722   -0.5313411733
H        2.3707947868    0.4106219006    0.3684677189
H        1.3727962332   -1.8485253915   -0.2561169097
H       -1.2313563220   -1.8768831266   -0.5152154619
H       -2.0812147576    0.3925018213    0.4892913312
H       -1.0557630129    2.3561733827   -0.9190907797
C       -0.0009257587   -0.4294013513    0.9066865037
H       -0.1624268971   -0.9492570952    1.8488115144
$end

$rem
method                b3lyp
basis                 6-31+g(d,p)
unrestricted          true
symmetry              off
sym_ignore            true
incdft                false
incfock               0
scf_convergence       8
thresh                14
jobtype               sp
scf_guess             core
scf_guess_mix         5
scf_algorithm         diis
max_scf_cycles        100
$end

--------------------------------------------------------------

             Standard Nuclear Orientation (Angstroms)
    I     Atom           X                Y                Z
 ----------------------------------------------------------------
    1      C       1.3753758541     0.3969482137    -0.0639618535
    2      C       0.7603872189    -0.9539701218    -0.2805048926
    3      C      -0.6747272642    -0.9554674551    -0.6844018817
    4      C      -1.0635046515     0.3359837711     0.1091190986
    5      C      -0.4690142653     1.5472433738    -0.4949097924
    6      N       0.8375368022     1.5652285722    -0.5313411733
    7      H       2.3707947868     0.4106219006     0.3684677189
    8      H       1.3727962332    -1.8485253915    -0.2561169097
    9      H      -1.2313563220    -1.8768831266    -0.5152154619
   10      H      -2.0812147576     0.3925018213     0.4892913312
   11      H      -1.0557630129     2.3561733827    -0.9190907797
   12      C      -0.0009257587    -0.4294013513     0.9066865037
   13      H      -0.1624268971    -0.9492570952     1.8488115144
 ----------------------------------------------------------------

   22    -286.8141634465      6.94E-09 Convergence criterion met
 Total energy in the final basis set = -286.81416345

                    Orbital Energies (a.u.)
 --------------------------------------------------------------

 Alpha MOs
 -- Occupied --
-14.331 -10.252 -10.246 -10.232 -10.230 -10.228 -10.219  -0.979
 -0.888  -0.767  -0.655  -0.636  -0.613  -0.557  -0.506  -0.461
 -0.450  -0.433  -0.422  -0.380  -0.374  -0.321  -0.280  -0.257
 -0.136

 Beta MOs
 -- Occupied --
-14.331 -10.253 -10.243 -10.228 -10.227 -10.224 -10.215  -0.974
 -0.883  -0.760  -0.648  -0.627  -0.610  -0.553  -0.501  -0.458
 -0.444  -0.430  -0.412  -0.374  -0.366  -0.303  -0.273  -0.247

          Ground-State Mulliken Net Atomic Charges

     Atom                 Charge (a.u.)    Spin (a.u.)
  --------------------------------------------------------
      1 C                    -0.247439       0.247554
      2 C                    -0.063087       0.044547
      3 C                    -0.144348       0.606341
      4 C                    -0.261756      -0.043696
      5 C                     0.015136       0.245486
      6 N                    -0.198751      -0.006407
      7 H                     0.142863      -0.009168
      8 H                     0.150855      -0.007301
      9 H                     0.152874      -0.004922
     10 H                     0.139622      -0.002858
     11 H                     0.128425      -0.013456
     12 C                     0.036779      -0.071044
     13 H                     0.148827       0.014924
  --------------------------------------------------------
  Sum of atomic charges =     0.000000

                    Cartesian Multipole Moments
 -----------------------------------------------------------------
    Charge (ESU x 10^10)
                 0.0000
    Dipole Moment (Debye)
         X      -1.0665      Y      -2.7089      Z       1.8883
       Tot       3.4700
    Quadrupole Moments (Debye-Ang)
        XX     -39.0287     XY      -4.7508     YY     -43.6321
        XZ       0.7080     YZ      -0.5694     ZZ     -44.3312

 Total job time:  31.87s(wall), 112.87s(cpu)
        *  Thank you very much for using Q-Chem.  Have a nice day.  *
