 Q-Chem 5.0, Q-Chem, Inc., Pleasanton, CA (2017)
 Q-Chem 5.0.2 for Intel X86 EM64T Linux

User input:
--------------------------------------------------------------
$molecule
0 2
C        1.5416823520    0.4345515156   -0.3547560222
C        0.8414183369   -0.8018218203    0.0679501629
C       -0.5894582632   -1.0218467898   -0.3929946855
C       -1.1159098153    0.3149951241    0.1092592345
C       -0.4288241129    1.5408520214   -0.3633114267
N        0.8870633713    1.5749436167   -0.5726297064
H        2.6221306185    0.4385102453   -0.4781805896
H        1.4504309340   -1.6944704329    0.1969641511
H       -1.0776959209   -1.8591588892   -0.8703581753
H       -2.1885397965    0.3845228938    0.2791743495
H       -0.9984778444    2.4436848592   -0.5709460682
C       -0.3513303913   -0.6485901863    1.0006492974
H       -0.5924894688   -1.1061721571    1.9491794791
$end

$rem
method                b3lyp
basis                 6-31+g(d,p)
unrestricted          true
symmetry              off
sym_ignore            true
incdft                false
incfock               0
scf_convergence       8
thresh                14
jobtype               sp
scf_guess             core
scf_guess_mix         5
scf_algorithm         diis
max_scf_cycles        100
$end

--------------------------------------------------------------

             Standard Nuclear Orientation (Angstroms)
    I     Atom           X                Y                Z
 ----------------------------------------------------------------
    1      C       1.5416823520     0.4345515156    -0.3547560222
    2      C       0.8414183369    -0.8018218203     0.0679501629
    3      C      -0.5894582632    -1.0218467898    -0.3929946855
    4      C      -1.1159098153     0.3149951241     0.1092592345
    5      C      -0.4288241129     1.5408520214    -0.3633114267
    6      N       0.8870633713     1.5749436167    -0.5726297064
    7      H       2.6221306185     0.4385102453    -0.4781805896
    8      H       1.4504309340    -1.6944704329     0.1969641511
    9      H      -1.0776959209    -1.8591588892    -0.8703581753
   10      H      -2.1885397965     0.3845228938     0.2791743495
   11      H      -0.9984778444     2.4436848592    -0.5709460682
   12      C      -0.3513303913    -0.6485901863     1.0006492974
   13      H      -0.5924894688    -1.1061721571     1.9491794791
 ----------------------------------------------------------------

   20    -286.8793122430      5.44E-09 Convergence criterion met
 Total energy in the final basis set = -286.87931224

                    Orbital Energies (a.u.)
 --------------------------------------------------------------

 Alpha MOs
 -- Occupied --
-14.331 -10.226 -10.226 -10.226 -10.225 -10.225 -10.225  -0.970
 -0.907  -0.760  -0.652  -0.645  -0.597  -0.553  -0.490  -0.482
 -0.473  -0.417  -0.405  -0.373  -0.348  -0.310  -0.309  -0.239
 -0.184

 Beta MOs
 -- Occupied --
-14.334 -10.226 -10.226 -10.223 -10.223 -10.218 -10.218  -0.966
 -0.905  -0.748  -0.641  -0.640  -0.592  -0.550  -0.484  -0.476
 -0.472  -0.413  -0.387  -0.370  -0.333  -0.309  -0.305  -0.239

          Ground-State Mulliken Net Atomic Charges

     Atom                 Charge (a.u.)    Spin (a.u.)
  --------------------------------------------------------
      1 C                    -0.101392       0.605726
      2 C                    -0.172008      -0.050501
      3 C                    -0.014257       0.081275
      4 C                    -0.172489      -0.050531
      5 C                    -0.101130       0.605669
      6 N                    -0.216479      -0.201906
      7 H                     0.124288      -0.032282
      8 H                     0.130333       0.000802
      9 H                     0.141411      -0.003995
     10 H                     0.130394       0.000801
     11 H                     0.124249      -0.032284
     12 C                    -0.014388       0.081219
     13 H                     0.141469      -0.003992
  --------------------------------------------------------
  Sum of atomic charges =    -0.000000

                    Cartesian Multipole Moments
 -----------------------------------------------------------------
    Charge (ESU x 10^10)
                -0.0000
    Dipole Moment (Debye)
         X      -1.5224      Y      -2.7035      Z       0.9831
       Tot       3.2547
    Quadrupole Moments (Debye-Ang)
        XX     -38.5108     XY      -3.9786     YY     -43.4047
        XZ       0.5398     YZ       0.7907     ZZ     -42.9211

 Total job time:  28.13s(wall), 101.90s(cpu)
        *  Thank you very much for using Q-Chem.  Have a nice day.  *
