 Q-Chem 5.0, Q-Chem, Inc., Pleasanton, CA (2017)
 Q-Chem 5.0.2 for Intel X86 EM64T Linux

User input:
--------------------------------------------------------------
$molecule
0 2
C        1.5360253282    0.4300916143   -0.3801114367
C        0.8437544071   -0.7974397119    0.0798822764
C       -0.5862466520   -1.0274836295   -0.3820258608
C       -1.1170077234    0.3117676513    0.1015896275
C       -0.4276996931    1.5419333912   -0.3564318933
N        0.8835071537    1.5722516612   -0.5869184177
H        2.6090857182    0.4195212083   -0.5610841245
H        1.4550905977   -1.6868571385    0.2237080226
H       -1.0696760219   -1.8716988620   -0.8536588081
H       -2.1913568186    0.3771031146    0.2651805570
H       -0.9909250331    2.4596109741   -0.5150379808
C       -0.3510240979   -0.6406732085    1.0055382051
H       -0.5935271654   -1.0881270641    1.9593698327
****
C        1.3037117696    0.3429061191    0.2326423553
C        0.6300299369   -0.9935492803   -0.1372354368
C       -0.6736796742   -0.5172236510   -0.8252854838
C       -1.0840726001    0.1856998610    0.4387794199
C       -0.5406826704    1.0159225167   -0.7395523731
N        0.7980227308    1.4202519984   -0.5304976148
H        2.3392590675    0.3675493204    0.5538056554
H        1.1673337259   -1.9233944629   -0.2864938657
H       -1.2671687284   -1.0350229177   -1.5704380888
H       -2.0630809310    0.3274684150    0.8826831820
H       -1.2001959980    1.6593576094   -1.3114992510
C        0.2204918052   -0.2904092488    1.1267232381
H        0.3700315660   -0.5595562790    2.1663682633
$end

$rem
method                b3lyp
basis                 6-31g(d)
unrestricted          true
symmetry              off
sym_ignore            true
incdft                false
incfock               0
scf_convergence       8
thresh                14
jobtype               fsm
scf_guess             core
scf_guess_mix         5
scf_algorithm         diis_gdm
max_scf_cycles        300
fsm_nnode             21
fsm_ngrad             6
fsm_mode              2
fsm_opt_mode          2
$end

--------------------------------------------------------------

   27    -286.8584622287      6.82E-09 Convergence criterion met
 Total energy in the final basis set = -286.85846223
   25    -286.8249397086      3.86E-09 Convergence criterion met
 Total energy in the final basis set = -286.82493971
   28    -286.8568229295      2.23E-09 Convergence criterion met
 Total energy in the final basis set = -286.85682293
   26    -286.8570837209      4.42E-09 Convergence criterion met
 Total energy in the final basis set = -286.85708372
   27    -286.8561906565      9.18E-09 Convergence criterion met
 Total energy in the final basis set = -286.85619066
   24    -286.8573016603      9.97E-09 Convergence criterion met
 Total energy in the final basis set = -286.85730166
   28    -286.8227643586      5.81E-09 Convergence criterion met
 Total energy in the final basis set = -286.82276436
   26    -286.8229483467      9.30E-09 Convergence criterion met
 Total energy in the final basis set = -286.77562144
   34    -286.7750382872      2.25E-09 Convergence criterion met
 Total energy in the final basis set = -286.77503829
   35    -286.7756345061      6.22E-09 Convergence criterion met
 Total energy in the final basis set = -286.77563451
   34    -286.7750834773      1.81E-09 Convergence criterion met
 Total energy in the final basis set = -286.77508348
   35    -286.7756674508      7.37E-09 Convergence criterion met
 Total energy in the final basis set = -286.77566745
   34    -286.7750782286      2.31E-09 Convergence criterion met
 Total energy in the final basis set = -286.77507823
   35    -286.7757167358      7.21E-09 Convergence criterion met
 Total energy in the final basis set = -286.77571674
   34    -286.7750488927      3.33E-09 Convergence criterion met
 Total energy in the final basis set = -286.77504889

                    Orbital Energies (a.u.)
 --------------------------------------------------------------

 Alpha MOs
 -- Occupied --
-14.329 -10.227 -10.226 -10.221 -10.213 -10.209 -10.195  -0.960
 -0.862  -0.745  -0.636  -0.623  -0.600  -0.535  -0.491  -0.456
 -0.448  -0.418  -0.401  -0.375  -0.354  -0.290  -0.280  -0.225
 -0.127

 Beta MOs
 -- Occupied --
-14.328 -10.225 -10.224 -10.220 -10.213 -10.209 -10.184  -0.956
 -0.855  -0.741  -0.629  -0.611  -0.593  -0.531  -0.488  -0.448
 -0.445  -0.415  -0.395  -0.369  -0.350  -0.283  -0.272  -0.203

          Ground-State Mulliken Net Atomic Charges

     Atom                 Charge (a.u.)    Spin (a.u.)
  --------------------------------------------------------
      1 C                     0.013957       0.201498
      2 C                    -0.185783      -0.038836
      3 C                    -0.133543       0.846589
      4 C                    -0.240174      -0.023408
      5 C                     0.098522       0.054985
      6 N                    -0.338673       0.017406
      7 H                     0.151735      -0.008435
      8 H                     0.143020      -0.000996
      9 H                     0.144216      -0.044695
     10 H                     0.142302       0.001796
     11 H                     0.147364      -0.003302
     12 C                    -0.097186      -0.009029
     13 H                     0.154243       0.006426
  --------------------------------------------------------
  Sum of atomic charges =    -0.000000

                    Cartesian Multipole Moments
 -----------------------------------------------------------------
    Charge (ESU x 10^10)
                -0.0000
    Dipole Moment (Debye)
         X      -1.0496      Y      -1.7777      Z       1.0476
       Tot       2.3151
    Quadrupole Moments (Debye-Ang)
        XX     -37.3346     XY      -3.3827     YY     -42.3073
        XZ       1.4235     YZ      -0.0541     ZZ     -41.3625

             Standard Nuclear Orientation (Angstroms)
    I     Atom           X                Y                Z
 ----------------------------------------------------------------
    1      C       1.4418909664     0.3939517949    -0.1068840294
    2      C       0.6999194144    -0.9402781619    -0.1232743720
    3      C      -0.6709638185    -0.8575397016    -0.7111046834
    4      C      -1.0540281985     0.2712267918     0.2906271977
    5      C      -0.4835563495     1.4440935063    -0.4782459635
    6      N       0.8102773706     1.4830806330    -0.5755299593
    7      H       2.4595428009     0.4635960344     0.2655097235
    8      H       1.3111486960    -1.8399422836    -0.1409522319
    9      H      -1.2917254470    -1.6047894461    -1.1786700651
   10      H      -2.0727185995     0.4019969906     0.6611208819
   11      H      -1.1177718402     2.0823287380    -1.0917887760
   12      C       0.0096898300    -0.4277794557     1.0898442361
   13      H      -0.0637468591    -0.8787489463     2.0761814633
 ----------------------------------------------------------------

 Total job time:  2141.86s(wall), 6071.02s(cpu)
        *  Thank you very much for using Q-Chem.  Have a nice day.  *
