 Q-Chem 5.0, Q-Chem, Inc., Pleasanton, CA (2017)
 Q-Chem 5.0.2 for Intel X86 EM64T Linux

User input:
--------------------------------------------------------------
$molecule
0 2
C        1.3753758541    0.3969482137   -0.0639618535
C        0.7603872189   -0.9539701218   -0.2805048926
C       -0.6747272642   -0.9554674551   -0.6844018817
C       -1.0635046515    0.3359837711    0.1091190986
C       -0.4690142653    1.5472433738   -0.4949097924
N        0.8375368022    1.5652285722   -0.5313411733
H        2.3707947868    0.4106219006    0.3684677189
H        1.3727962332   -1.8485253915   -0.2561169097
H       -1.2313563220   -1.8768831266   -0.5152154619
H       -2.0812147576    0.3925018213    0.4892913312
H       -1.0557630129    2.3561733827   -0.9190907797
C       -0.0009257587   -0.4294013513    0.9066865037
H       -0.1624268971   -0.9492570952    1.8488115144
$end

$rem
method                b3lyp
basis                 6-31+g(d,p)
unrestricted          true
symmetry              off
sym_ignore            true
incdft                false
incfock               0
scf_convergence       8
thresh                14
jobtype               rpath
scf_guess             core
scf_guess_mix         5
scf_algorithm         diis
max_scf_cycles        100
rpath_direction       1
rpath_tol_displacement 1000
rpath_max_cycles      50
geom_opt_max_cycles   300
geom_opt_hessian      read
$end

--------------------------------------------------------------

   22    -286.8141634465      6.94E-09 Convergence criterion met
 Total energy in the final basis set = -286.81416345
   23    -286.8175132017      5.43E-09 Convergence criterion met
 Total energy in the final basis set = -286.81751320
   23    -286.8174986255      5.63E-09 Convergence criterion met
 Total energy in the final basis set = -286.81749863
   23    -286.8175250995      5.50E-09 Convergence criterion met
 Total energy in the final basis set = -286.81752510
   22    -286.8253727314      7.95E-09 Convergence criterion met
 Total energy in the final basis set = -286.82537273
   22    -286.8253651337      6.32E-09 Convergence criterion met
 Total energy in the final basis set = -286.82536513
   22    -286.8253965827      6.96E-09 Convergence criterion met
 Total energy in the final basis set = -286.82539658
   21    -286.8343546922      9.91E-09 Convergence criterion met
 Total energy in the final basis set = -286.85574324
   21    -286.8568809219      3.96E-09 Convergence criterion met
 Total energy in the final basis set = -286.85688092
   21    -286.8568777527      3.59E-09 Convergence criterion met
 Total energy in the final basis set = -286.85687775
   21    -286.8568832782      3.85E-09 Convergence criterion met
 Total energy in the final basis set = -286.85688328
   21    -286.8547727141      3.83E-09 Convergence criterion met
 Total energy in the final basis set = -286.85477271
   21    -286.8568861869      3.64E-09 Convergence criterion met
 Total energy in the final basis set = -286.85688619
   21    -286.8568854483      3.82E-09 Convergence criterion met
 Total energy in the final basis set = -286.85688545
   21    -286.8568872269      3.72E-09 Convergence criterion met
 Total energy in the final basis set = -286.85688723

                    Orbital Energies (a.u.)
 --------------------------------------------------------------

 Alpha MOs
 -- Occupied --
-14.334 -10.233 -10.231 -10.223 -10.221 -10.220 -10.211  -0.980
 -0.867  -0.760  -0.674  -0.615  -0.583  -0.549  -0.518  -0.465
 -0.450  -0.420  -0.410  -0.369  -0.344  -0.317  -0.282  -0.271
 -0.180

 Beta MOs
 -- Occupied --
-14.334 -10.233 -10.231 -10.221 -10.220 -10.220 -10.199  -0.976
 -0.861  -0.753  -0.661  -0.611  -0.579  -0.544  -0.511  -0.458
 -0.446  -0.415  -0.406  -0.361  -0.340  -0.304  -0.275  -0.266

          Ground-State Mulliken Net Atomic Charges

     Atom                 Charge (a.u.)    Spin (a.u.)
  --------------------------------------------------------
      1 C                    -0.252659       0.014977
      2 C                    -0.106038      -0.102436
      3 C                    -0.112714       1.001096
      4 C                    -0.108352      -0.087594
      5 C                    -0.012061      -0.001126
      6 N                    -0.177935       0.027225
      7 H                     0.144861       0.003276
      8 H                     0.140041       0.000416
      9 H                     0.136916      -0.040117
     10 H                     0.131436       0.008488
     11 H                     0.131894       0.001595
     12 C                    -0.050541       0.166518
     13 H                     0.135153       0.007681
  --------------------------------------------------------
  Sum of atomic charges =     0.000000

                    Cartesian Multipole Moments
 -----------------------------------------------------------------
    Charge (ESU x 10^10)
                 0.0000
    Dipole Moment (Debye)
         X      -1.2952      Y      -1.9298      Z       1.7573
       Tot       2.9137
    Quadrupole Moments (Debye-Ang)
        XX     -38.6966     XY      -4.5106     YY     -43.4292
        XZ       2.0661     YZ       0.9189     ZZ     -43.1092

             Standard Nuclear Orientation (Angstroms)
    I     Atom           X                Y                Z
 ----------------------------------------------------------------
    1      C       1.3753758541     0.3969482137    -0.0639618535
    2      C       0.7603872189    -0.9539701218    -0.2805048926
    3      C      -0.6747272642    -0.9554674551    -0.6844018817
    4      C      -1.0635046515     0.3359837711     0.1091190986
    5      C      -0.4690142653     1.5472433738    -0.4949097924
    6      N       0.8375368022     1.5652285722    -0.5313411733
    7      H       2.3707947868     0.4106219006     0.3684677189
    8      H       1.3727962332    -1.8485253915    -0.2561169097
    9      H      -1.2313563220    -1.8768831266    -0.5152154619
   10      H      -2.0812147576     0.3925018213     0.4892913312
   11      H      -1.0557630129     2.3561733827    -0.9190907797
   12      C      -0.0009257587    -0.4294013513     0.9066865037
   13      H      -0.1624268971    -0.9492570952     1.8488115144
 ----------------------------------------------------------------

 Total job time:  11889.71s(wall), 40496.94s(cpu)
        *  Thank you very much for using Q-Chem.  Have a nice day.  *
