 Q-Chem 5.0, Q-Chem, Inc., Pleasanton, CA (2017)
 Q-Chem 5.0.2 for Intel X86 EM64T Linux

User input:
--------------------------------------------------------------
$molecule
0 2
C        1.3034339149    0.3431468119    0.2333440431
C        0.6301757149   -0.9935974876   -0.1375702383
C       -0.6739377544   -0.5174207747   -0.8250621568
C       -1.0837971411    0.1863199825    0.4387364016
C       -0.5405569156    1.0158562494   -0.7398804768
N        0.7980859836    1.4202014911   -0.5305790376
H        2.3389958946    0.3676837708    0.5544935681
H        1.1684079390   -1.9228026975   -0.2873799363
H       -1.2682371361   -1.0353839584   -1.5694244973
H       -2.0627028675    0.3281351243    0.8828650657
H       -1.1999773692    1.6590239068   -1.3122665600
C        0.2205489967   -0.2907708487    1.1265501779
H        0.3695607401   -0.5603915698    2.1661736469
$end

$rem
method                b3lyp
basis                 6-31g(d)
unrestricted          true
symmetry              off
sym_ignore            true
incdft                false
incfock               0
scf_convergence       8
thresh                14
jobtype               opt
scf_guess             core
scf_guess_mix         5
scf_algorithm         diis
max_scf_cycles        100
geom_opt_max_cycles   300
$end

--------------------------------------------------------------

   20    -286.8249389484      7.14E-09 Convergence criterion met
 Total energy in the final basis set = -286.82493895

             Standard Nuclear Orientation (Angstroms)
    I     Atom           X                Y                Z
 ----------------------------------------------------------------
    1      C       1.3037117696     0.3429061191     0.2326423553
    2      C       0.6300299369    -0.9935492803    -0.1372354368
    3      C      -0.6736796742    -0.5172236510    -0.8252854838
    4      C      -1.0840726001     0.1856998610     0.4387794199
    5      C      -0.5406826704     1.0159225167    -0.7395523731
    6      N       0.7980227308     1.4202519984    -0.5304976148
    7      H       2.3392590675     0.3675493204     0.5538056554
    8      H       1.1673337259    -1.9233944629    -0.2864938657
    9      H      -1.2671687284    -1.0350229177    -1.5704380888
   10      H      -2.0630809310     0.3274684150     0.8826831820
   11      H      -1.2001959980     1.6593576094    -1.3114992510
   12      C       0.2204918052    -0.2904092488     1.1267232381
   13      H       0.3700315660    -0.5595562790     2.1663682633
 ----------------------------------------------------------------

   14    -286.8249397093      2.65E-09 Convergence criterion met
 Total energy in the final basis set = -286.82493971
 Final energy is   -286.824939709339
 **  OPTIMIZATION CONVERGED  **

                    Orbital Energies (a.u.)
 --------------------------------------------------------------

 Alpha MOs
 -- Occupied --
-14.335 -10.215 -10.215 -10.207 -10.207 -10.207 -10.206  -0.986
 -0.836  -0.793  -0.649  -0.588  -0.574  -0.542  -0.533  -0.455
 -0.427  -0.415  -0.395  -0.384  -0.337  -0.275  -0.274  -0.248
 -0.212

 Beta MOs
 -- Occupied --
-14.319 -10.217 -10.216 -10.205 -10.205 -10.205 -10.205  -0.976
 -0.811  -0.789  -0.644  -0.585  -0.568  -0.537  -0.529  -0.453
 -0.423  -0.392  -0.389  -0.378  -0.322  -0.269  -0.257  -0.244

          Ground-State Mulliken Net Atomic Charges

     Atom                 Charge (a.u.)    Spin (a.u.)
  --------------------------------------------------------
      1 C                    -0.044812      -0.080388
      2 C                    -0.124666       0.089612
      3 C                    -0.124760       0.089363
      4 C                    -0.124522       0.088909
      5 C                    -0.045114      -0.080247
      6 N                    -0.285788       0.811475
      7 H                     0.149314       0.001046
      8 H                     0.143984      -0.002515
      9 H                     0.143983      -0.002506
     10 H                     0.143992      -0.002467
     11 H                     0.149353       0.001045
     12 C                    -0.124913       0.089139
     13 H                     0.143951      -0.002466
  --------------------------------------------------------
  Sum of atomic charges =    -0.000000

                    Cartesian Multipole Moments
 -----------------------------------------------------------------
    Charge (ESU x 10^10)
                -0.0000
    Dipole Moment (Debye)
         X      -1.0826      Y      -1.9253      Z       0.7202
       Tot       2.3232
    Quadrupole Moments (Debye-Ang)
        XX     -37.8186     XY      -3.6174     YY     -43.5275
        XZ       2.5572     YZ       1.0598     ZZ     -39.2700

 Total job time:  32.03s(wall), 101.65s(cpu)
        *  Thank you very much for using Q-Chem.  Have a nice day.  *
