 Q-Chem 5.0, Q-Chem, Inc., Pleasanton, CA (2017)
 Q-Chem 5.0.2 for Intel X86 EM64T Linux

User input:
--------------------------------------------------------------
$molecule
0 2
C        1.3784042585    0.4003618997   -0.0701552906
C        0.7575017867   -0.9520031978   -0.2761066785
C       -0.6763645901   -0.9526091268   -0.6954073333
C       -1.0621059945    0.3345912484    0.1117951026
C       -0.4664680365    1.5458417908   -0.4916912016
N        0.8386749427    1.5664762950   -0.5316862548
H        2.3746140752    0.4143112193    0.3620880771
H        1.3714034475   -1.8463586851   -0.2497419666
H       -1.2277271580   -1.8743211902   -0.5076377922
H       -2.0808819008    0.3919869727    0.4907483178
H       -1.0544990317    2.3529368460   -0.9197208008
C       -0.0028153191   -0.4325902818    0.9078303581
H       -0.1717785139   -0.9574272963    1.8465188847
$end

$rem
method                b3lyp
basis                 6-31+g(d,p)
unrestricted          true
symmetry              off
sym_ignore            true
incdft                false
incfock               0
scf_convergence       8
thresh                14
jobtype               freq
scf_guess             read
scf_algorithm         diis
max_scf_cycles        100
$end

--------------------------------------------------------------

             Standard Nuclear Orientation (Angstroms)
    I     Atom           X                Y                Z
 ----------------------------------------------------------------
    1      C       1.3784042585     0.4003618997    -0.0701552906
    2      C       0.7575017867    -0.9520031978    -0.2761066785
    3      C      -0.6763645901    -0.9526091268    -0.6954073333
    4      C      -1.0621059945     0.3345912484     0.1117951026
    5      C      -0.4664680365     1.5458417908    -0.4916912016
    6      N       0.8386749427     1.5664762950    -0.5316862548
    7      H       2.3746140752     0.4143112193     0.3620880771
    8      H       1.3714034475    -1.8463586851    -0.2497419666
    9      H      -1.2277271580    -1.8743211902    -0.5076377922
   10      H      -2.0808819008     0.3919869727     0.4907483178
   11      H      -1.0544990317     2.3529368460    -0.9197208008
   12      C      -0.0028153191    -0.4325902818     0.9078303581
   13      H      -0.1717785139    -0.9574272963     1.8465188847
 ----------------------------------------------------------------

    2    -286.8141142411      1.52E-09 Convergence criterion met
 Total energy in the final basis set = -286.81411424

                    Orbital Energies (a.u.)
 --------------------------------------------------------------

 Alpha MOs
 -- Occupied --
-14.332 -10.251 -10.246 -10.232 -10.230 -10.228 -10.220  -0.979
 -0.888  -0.767  -0.655  -0.637  -0.613  -0.556  -0.505  -0.461
 -0.449  -0.433  -0.422  -0.381  -0.374  -0.321  -0.281  -0.256
 -0.139

 Beta MOs
 -- Occupied --
-14.332 -10.252 -10.243 -10.228 -10.227 -10.224 -10.216  -0.975
 -0.884  -0.759  -0.647  -0.627  -0.610  -0.553  -0.500  -0.458
 -0.443  -0.429  -0.412  -0.374  -0.366  -0.303  -0.274  -0.246

          Ground-State Mulliken Net Atomic Charges

     Atom                 Charge (a.u.)    Spin (a.u.)
  --------------------------------------------------------
      1 C                    -0.242186       0.257197
      2 C                    -0.065305       0.038714
      3 C                    -0.146818       0.611066
      4 C                    -0.267184      -0.045447
      5 C                     0.018320       0.245761
      6 N                    -0.196746      -0.011262
      7 H                     0.142665      -0.009764
      8 H                     0.150508      -0.007102
      9 H                     0.152542      -0.003631
     10 H                     0.139731      -0.002827
     11 H                     0.128418      -0.013585
     12 C                     0.037869      -0.074774
     13 H                     0.148186       0.015654
  --------------------------------------------------------
  Sum of atomic charges =    -0.000000

                    Cartesian Multipole Moments
 -----------------------------------------------------------------
    Charge (ESU x 10^10)
                -0.0000
    Dipole Moment (Debye)
         X      -1.0540      Y      -2.6561      Z       1.8948
       Tot       3.4286
    Quadrupole Moments (Debye-Ang)
        XX     -39.0428     XY      -4.7328     YY     -43.5909
        XZ       0.6466     YZ      -0.6385     ZZ     -44.3990

 Frequency:      -917.92                 174.10                 441.28
 Force Cnst:      2.6493                 0.0941                 0.3132
 Red. Mass:       5.3367                 5.2710                 2.7295
 IR Intens:      223.387                 29.022                  1.113
 Frequency:       465.78                 646.81                 666.94
 Force Cnst:      0.7295                 1.4494                 0.7538
 Red. Mass:       5.7071                 5.8803                 2.8761
 IR Intens:        6.430                 14.557                 38.067
 Frequency:       691.15                 760.12                 789.76
 Force Cnst:      0.8474                 0.4961                 0.5769
 Red. Mass:       3.0109                 1.4573                 1.5699
 IR Intens:        6.810                 19.924                 48.061
 Frequency:       818.34                 854.68                 876.70
 Force Cnst:      0.6402                 0.6411                 0.9145
 Red. Mass:       1.6225                 1.4896                 2.0195
 IR Intens:        4.568                  4.353                 56.627
 Frequency:       916.87                 941.71                 986.84
 Force Cnst:      0.7949                 0.8709                 1.3234
 Red. Mass:       1.6049                 1.6669                 2.3066
 IR Intens:        2.578                 14.082                  2.137
 Frequency:      1020.50                1053.78                1070.87
 Force Cnst:      1.1675                 1.2143                 1.0347
 Red. Mass:       1.9028                 1.8560                 1.5315
 IR Intens:        1.884                  5.403                  3.151
 Frequency:      1157.56                1173.03                1196.40
 Force Cnst:      1.8828                 1.1084                 1.3725
 Red. Mass:       2.3849                 1.3671                 1.6275
 IR Intens:       10.426                  7.570                 12.009
 Frequency:      1230.45                1318.77                1337.97
 Force Cnst:      1.6721                 1.4305                 2.0834
 Red. Mass:       1.8745                 1.3960                 1.9753
 IR Intens:        7.539                  7.906                 12.988
 Frequency:      1365.56                1397.84                1536.70
 Force Cnst:      2.2148                 2.6571                 6.1799
 Red. Mass:       2.0159                 2.3080                 4.4418
 IR Intens:       11.048                  3.825                 67.601
 Frequency:      3138.84                3157.92                3167.63
 Force Cnst:      6.3140                 6.4022                 6.4555
 Red. Mass:       1.0877                 1.0896                 1.0920
 IR Intens:       14.153                  7.157                 17.008
 Frequency:      3193.62                3197.14                3205.39
 Force Cnst:      6.5389                 6.5821                 6.6275
 Red. Mass:       1.0881                 1.0929                 1.0948
 IR Intens:        8.967                 12.717                  6.807

 STANDARD THERMODYNAMIC QUANTITIES AT   298.15 K  AND     1.00 ATM

   This Molecule has  1 Imaginary Frequencies
   Zero point vibrational energy:       62.831 kcal/mol

   Atom    1 Element C  Has Mass   12.00000
   Atom    2 Element C  Has Mass   12.00000
   Atom    3 Element C  Has Mass   12.00000
   Atom    4 Element C  Has Mass   12.00000
   Atom    5 Element C  Has Mass   12.00000
   Atom    6 Element N  Has Mass   14.00307
   Atom    7 Element H  Has Mass    1.00783
   Atom    8 Element H  Has Mass    1.00783
   Atom    9 Element H  Has Mass    1.00783
   Atom   10 Element H  Has Mass    1.00783
   Atom   11 Element H  Has Mass    1.00783
   Atom   12 Element C  Has Mass   12.00000
   Atom   13 Element H  Has Mass    1.00783
   Molecular Mass:    92.050050 amu
   Principal axes and moments of inertia in amu*Bohr^2:
                             1           2           3
    Eigenvalues --      348.48176   458.37219   632.40909
          X               0.22242     0.97492    -0.00781
          Y               0.95929    -0.21741     0.18026
          Z              -0.17405     0.04759     0.98359
   Rotational Symmetry Number is   1
   The Molecule is an Asymmetric Top
   Translational Enthalpy:        0.889 kcal/mol
   Rotational Enthalpy:           0.889 kcal/mol
   Vibrational Enthalpy:         64.218 kcal/mol
   gas constant (RT):             0.592 kcal/mol
   Translational Entropy:        39.471  cal/mol.K
   Rotational Entropy:           26.116  cal/mol.K
   Vibrational Entropy:           6.825  cal/mol.K

   Total Enthalpy:               66.588 kcal/mol
   Total Entropy:                72.411  cal/mol.K

 Total job time:  581.22s(wall), 567.67s(cpu)
        *  Thank you very much for using Q-Chem.  Have a nice day.  *
