 Q-Chem 5.0, Q-Chem, Inc., Pleasanton, CA (2017)
 Q-Chem 5.0.2 for Intel X86 EM64T Linux

User input:
--------------------------------------------------------------
$molecule
0 2
C        1.3753758541    0.3969482137   -0.0639618535
C        0.7603872189   -0.9539701218   -0.2805048926
C       -0.6747272642   -0.9554674551   -0.6844018817
C       -1.0635046515    0.3359837711    0.1091190986
C       -0.4690142653    1.5472433738   -0.4949097924
N        0.8375368022    1.5652285722   -0.5313411733
H        2.3707947868    0.4106219006    0.3684677189
H        1.3727962332   -1.8485253915   -0.2561169097
H       -1.2313563220   -1.8768831266   -0.5152154619
H       -2.0812147576    0.3925018213    0.4892913312
H       -1.0557630129    2.3561733827   -0.9190907797
C       -0.0009257587   -0.4294013513    0.9066865037
H       -0.1624268971   -0.9492570952    1.8488115144
$end

$rem
method                b3lyp
basis                 6-31+g(d,p)
unrestricted          true
symmetry              off
sym_ignore            true
incdft                false
incfock               0
scf_convergence       8
thresh                14
jobtype               freq
scf_guess             read
scf_algorithm         diis
max_scf_cycles        100
$end

--------------------------------------------------------------

             Standard Nuclear Orientation (Angstroms)
    I     Atom           X                Y                Z
 ----------------------------------------------------------------
    1      C       1.3753758541     0.3969482137    -0.0639618535
    2      C       0.7603872189    -0.9539701218    -0.2805048926
    3      C      -0.6747272642    -0.9554674551    -0.6844018817
    4      C      -1.0635046515     0.3359837711     0.1091190986
    5      C      -0.4690142653     1.5472433738    -0.4949097924
    6      N       0.8375368022     1.5652285722    -0.5313411733
    7      H       2.3707947868     0.4106219006     0.3684677189
    8      H       1.3727962332    -1.8485253915    -0.2561169097
    9      H      -1.2313563220    -1.8768831266    -0.5152154619
   10      H      -2.0812147576     0.3925018213     0.4892913312
   11      H      -1.0557630129     2.3561733827    -0.9190907797
   12      C      -0.0009257587    -0.4294013513     0.9066865037
   13      H      -0.1624268971    -0.9492570952     1.8488115144
 ----------------------------------------------------------------

    2    -286.8141634466      1.87E-10 Convergence criterion met
 Total energy in the final basis set = -286.81416345

                    Orbital Energies (a.u.)
 --------------------------------------------------------------

 Alpha MOs
 -- Occupied --
-14.331 -10.252 -10.246 -10.232 -10.230 -10.228 -10.219  -0.979
 -0.888  -0.767  -0.655  -0.636  -0.613  -0.557  -0.506  -0.461
 -0.450  -0.433  -0.422  -0.380  -0.374  -0.321  -0.280  -0.257
 -0.136

 Beta MOs
 -- Occupied --
-14.331 -10.253 -10.243 -10.228 -10.227 -10.224 -10.215  -0.974
 -0.883  -0.760  -0.648  -0.627  -0.610  -0.553  -0.501  -0.458
 -0.444  -0.430  -0.412  -0.374  -0.366  -0.303  -0.273  -0.247

          Ground-State Mulliken Net Atomic Charges

     Atom                 Charge (a.u.)    Spin (a.u.)
  --------------------------------------------------------
      1 C                    -0.247439       0.247563
      2 C                    -0.063087       0.044548
      3 C                    -0.144348       0.606341
      4 C                    -0.261755      -0.043695
      5 C                     0.015136       0.245498
      6 N                    -0.198751      -0.006417
      7 H                     0.142863      -0.009169
      8 H                     0.150855      -0.007302
      9 H                     0.152874      -0.004921
     10 H                     0.139622      -0.002858
     11 H                     0.128425      -0.013457
     12 C                     0.036779      -0.071057
     13 H                     0.148827       0.014925
  --------------------------------------------------------
  Sum of atomic charges =     0.000000

                    Cartesian Multipole Moments
 -----------------------------------------------------------------
    Charge (ESU x 10^10)
                 0.0000
    Dipole Moment (Debye)
         X      -1.0665      Y      -2.7089      Z       1.8883
       Tot       3.4700
    Quadrupole Moments (Debye-Ang)
        XX     -39.0287     XY      -4.7508     YY     -43.6321
        XZ       0.7080     YZ      -0.5694     ZZ     -44.3312

 Frequency:      -924.77                 144.68                 442.63
 Force Cnst:      2.7500                 0.0659                 0.3096
 Red. Mass:       5.4578                 5.3445                 2.6825
 IR Intens:      246.595                 32.337                  1.727
 Frequency:       462.91                 647.31                 663.56
 Force Cnst:      0.7299                 1.3595                 0.7332
 Red. Mass:       5.7808                 5.5069                 2.8264
 IR Intens:        5.773                 18.736                 35.290
 Frequency:       690.72                 759.03                 785.13
 Force Cnst:      0.7936                 0.4838                 0.5826
 Red. Mass:       2.8231                 1.4254                 1.6043
 IR Intens:        6.483                 16.872                 53.683
 Frequency:       812.91                 853.29                 872.99
 Force Cnst:      0.6477                 0.6405                 0.8877
 Red. Mass:       1.6634                 1.4930                 1.9769
 IR Intens:        4.007                  6.778                 48.555
 Frequency:       914.35                 938.36                 984.34
 Force Cnst:      0.7905                 0.8797                 1.3304
 Red. Mass:       1.6049                 1.6957                 2.3304
 IR Intens:        2.001                 14.493                  2.561
 Frequency:      1020.22                1050.78                1066.38
 Force Cnst:      1.1904                 1.2455                 1.0280
 Red. Mass:       1.9411                 1.9146                 1.5343
 IR Intens:        1.909                  5.015                  4.323
 Frequency:      1150.80                1168.84                1191.96
 Force Cnst:      1.8945                 1.0694                 1.3481
 Red. Mass:       2.4280                 1.3285                 1.6104
 IR Intens:       11.943                  7.260                 11.422
 Frequency:      1228.82                1315.10                1339.43
 Force Cnst:      1.6800                 1.4260                 2.0680
 Red. Mass:       1.8884                 1.3995                 1.9565
 IR Intens:        7.352                  8.650                 12.560
 Frequency:      1364.07                1394.15                1531.60
 Force Cnst:      2.3400                 2.5583                 6.0488
 Red. Mass:       2.1345                 2.2340                 4.3765
 IR Intens:        9.963                  4.297                 71.339
 Frequency:      3146.25                3163.61                3173.40
 Force Cnst:      6.3455                 6.4268                 6.4789
 Red. Mass:       1.0880                 1.0899                 1.0919
 IR Intens:       12.170                  7.165                 16.901
 Frequency:      3200.25                3204.84                3212.18
 Force Cnst:      6.5660                 6.6123                 6.6566
 Red. Mass:       1.0881                 1.0927                 1.0950
 IR Intens:        8.034                 13.153                  5.733

 STANDARD THERMODYNAMIC QUANTITIES AT   298.15 K  AND     1.00 ATM

   This Molecule has  1 Imaginary Frequencies
   Zero point vibrational energy:       62.751 kcal/mol

   Atom    1 Element C  Has Mass   12.00000
   Atom    2 Element C  Has Mass   12.00000
   Atom    3 Element C  Has Mass   12.00000
   Atom    4 Element C  Has Mass   12.00000
   Atom    5 Element C  Has Mass   12.00000
   Atom    6 Element N  Has Mass   14.00307
   Atom    7 Element H  Has Mass    1.00783
   Atom    8 Element H  Has Mass    1.00783
   Atom    9 Element H  Has Mass    1.00783
   Atom   10 Element H  Has Mass    1.00783
   Atom   11 Element H  Has Mass    1.00783
   Atom   12 Element C  Has Mass   12.00000
   Atom   13 Element H  Has Mass    1.00783
   Molecular Mass:    92.050050 amu
   Principal axes and moments of inertia in amu*Bohr^2:
                             1           2           3
    Eigenvalues --      348.35597   457.81143   632.57743
          X               0.21385     0.97683    -0.00833
          Y               0.96124    -0.20890     0.17996
          Z              -0.17405     0.04649     0.98364
   Rotational Symmetry Number is   1
   The Molecule is an Asymmetric Top
   Translational Enthalpy:        0.889 kcal/mol
   Rotational Enthalpy:           0.889 kcal/mol
   Vibrational Enthalpy:         64.176 kcal/mol
   gas constant (RT):             0.592 kcal/mol
   Translational Entropy:        39.471  cal/mol.K
   Rotational Entropy:           26.114  cal/mol.K
   Vibrational Entropy:           7.206  cal/mol.K

   Total Enthalpy:               66.546 kcal/mol
   Total Entropy:                72.791  cal/mol.K

 Total job time:  579.07s(wall), 564.04s(cpu)
        *  Thank you very much for using Q-Chem.  Have a nice day.  *
