 Q-Chem 5.0, Q-Chem, Inc., Pleasanton, CA (2017)
 Q-Chem 5.0.2 for Intel X86 EM64T Linux

User input:
--------------------------------------------------------------
$molecule
0 2
C        1.4418909664    0.3939517949   -0.1068840294
C        0.6999194144   -0.9402781619   -0.1232743720
C       -0.6709638185   -0.8575397016   -0.7111046834
C       -1.0540281985    0.2712267918    0.2906271977
C       -0.4835563495    1.4440935063   -0.4782459635
N        0.8102773706    1.4830806330   -0.5755299593
H        2.4595428009    0.4635960344    0.2655097235
H        1.3111486960   -1.8399422836   -0.1409522319
H       -1.2917254470   -1.6047894461   -1.1786700651
H       -2.0727185995    0.4019969906    0.6611208819
H       -1.1177718402    2.0823287380   -1.0917887760
C        0.0096898300   -0.4277794557    1.0898442361
H       -0.0637468591   -0.8787489463    2.0761814633
$end

$rem
method                b3lyp
basis                 6-31g(d)
unrestricted          true
symmetry              off
sym_ignore            true
incdft                false
incfock               0
scf_convergence       8
thresh                14
jobtype               ts
scf_guess             read
scf_algorithm         diis
max_scf_cycles        100
geom_opt_max_cycles   500
geom_opt_dmax         100
geom_opt_tol_gradient 10
geom_opt_hessian      read
$end

--------------------------------------------------------------

    2    -286.7823843461      1.30E-09 Convergence criterion met
 Total energy in the final basis set = -286.78238435
   16    -286.7826317690      3.58E-09 Convergence criterion met
 Total energy in the final basis set = -286.78263177
   16    -286.7832028438      3.29E-09 Convergence criterion met
 Total energy in the final basis set = -286.78320284
   16    -286.7838407767      2.39E-09 Convergence criterion met
 Total energy in the final basis set = -286.78384078
   16    -286.7843751092      1.95E-09 Convergence criterion met
 Total energy in the final basis set = -286.78437511
   15    -286.7850070017      9.13E-09 Convergence criterion met
 Total energy in the final basis set = -286.78500700
   15    -286.7855833937      8.97E-09 Convergence criterion met
 Total energy in the final basis set = -286.78558339
   15    -286.7862322731      8.12E-09 Convergence criterion met
   13    -286.7917747637      7.14E-09 Convergence criterion met
 Total energy in the final basis set = -286.79177476
   13    -286.7917739351      8.98E-09 Convergence criterion met
 Total energy in the final basis set = -286.79177394
   11    -286.7917749253      8.78E-09 Convergence criterion met
 Total energy in the final basis set = -286.79177493
   11    -286.7917750168      7.16E-09 Convergence criterion met
 Total energy in the final basis set = -286.79177502
   11    -286.7917753956      7.92E-09 Convergence criterion met
 Total energy in the final basis set = -286.79177540
   11    -286.7917754044      5.29E-09 Convergence criterion met
 Total energy in the final basis set = -286.79177540

             Standard Nuclear Orientation (Angstroms)
    I     Atom           X                Y                Z
 ----------------------------------------------------------------
    1      C       1.3784042585     0.4003618997    -0.0701552906
    2      C       0.7575017867    -0.9520031978    -0.2761066785
    3      C      -0.6763645901    -0.9526091268    -0.6954073333
    4      C      -1.0621059945     0.3345912484     0.1117951026
    5      C      -0.4664680365     1.5458417908    -0.4916912016
    6      N       0.8386749427     1.5664762950    -0.5316862548
    7      H       2.3746140752     0.4143112193     0.3620880771
    8      H       1.3714034475    -1.8463586851    -0.2497419666
    9      H      -1.2277271580    -1.8743211902    -0.5076377922
   10      H      -2.0808819008     0.3919869727     0.4907483178
   11      H      -1.0544990317     2.3529368460    -0.9197208008
   12      C      -0.0028153191    -0.4325902818     0.9078303581
   13      H      -0.1717785139    -0.9574272963     1.8465188847
 ----------------------------------------------------------------

    9    -286.7917754032      9.88E-09 Convergence criterion met
 Total energy in the final basis set = -286.79177540
 Final energy is   -286.791775403188
 **  OPTIMIZATION CONVERGED  **

                    Orbital Energies (a.u.)
 --------------------------------------------------------------

 Alpha MOs
 -- Occupied --
-14.316 -10.239 -10.234 -10.219 -10.218 -10.216 -10.208  -0.966
 -0.875  -0.755  -0.644  -0.625  -0.603  -0.547  -0.497  -0.450
 -0.439  -0.423  -0.412  -0.369  -0.363  -0.310  -0.267  -0.244
 -0.126

 Beta MOs
 -- Occupied --
-14.316 -10.240 -10.231 -10.216 -10.216 -10.210 -10.204  -0.961
 -0.871  -0.748  -0.636  -0.616  -0.600  -0.543  -0.492  -0.446
 -0.432  -0.419  -0.401  -0.363  -0.355  -0.291  -0.261  -0.234

          Ground-State Mulliken Net Atomic Charges

     Atom                 Charge (a.u.)    Spin (a.u.)
  --------------------------------------------------------
      1 C                     0.026428       0.246241
      2 C                    -0.172263       0.066090
      3 C                    -0.105647       0.576283
      4 C                    -0.249924       0.016047
      5 C                     0.096071       0.255441
      6 N                    -0.374142      -0.011731
      7 H                     0.152387      -0.010281
      8 H                     0.158734      -0.007404
      9 H                     0.146231      -0.004930
     10 H                     0.148683      -0.003167
     11 H                     0.138823      -0.013937
     12 C                    -0.125191      -0.126739
     13 H                     0.159811       0.018085
  --------------------------------------------------------
  Sum of atomic charges =    -0.000000

                    Cartesian Multipole Moments
 -----------------------------------------------------------------
    Charge (ESU x 10^10)
                -0.0000
    Dipole Moment (Debye)
         X      -0.9854      Y      -2.4656      Z       1.7794
       Tot       3.1963
    Quadrupole Moments (Debye-Ang)
        XX     -38.0007     XY      -4.1149     YY     -41.9590
        XZ       0.6267     YZ      -0.6272     ZZ     -42.6011

 Total job time:  461.70s(wall), 1318.78s(cpu)
        *  Thank you very much for using Q-Chem.  Have a nice day.  *
