 Q-Chem 5.0, Q-Chem, Inc., Pleasanton, CA (2017)
 Q-Chem 5.0.2 for Intel X86 EM64T Linux

User input:
--------------------------------------------------------------
$molecule
0 2
C        1.4418909664    0.3939517949   -0.1068840294
C        0.6999194144   -0.9402781619   -0.1232743720
C       -0.6709638185   -0.8575397016   -0.7111046834
C       -1.0540281985    0.2712267918    0.2906271977
C       -0.4835563495    1.4440935063   -0.4782459635
N        0.8102773706    1.4830806330   -0.5755299593
H        2.4595428009    0.4635960344    0.2655097235
H        1.3111486960   -1.8399422836   -0.1409522319
H       -1.2917254470   -1.6047894461   -1.1786700651
H       -2.0727185995    0.4019969906    0.6611208819
H       -1.1177718402    2.0823287380   -1.0917887760
C        0.0096898300   -0.4277794557    1.0898442361
H       -0.0637468591   -0.8787489463    2.0761814633
$end

$rem
method                b3lyp
basis                 6-31g(d)
unrestricted          true
symmetry              off
sym_ignore            true
incdft                false
incfock               0
scf_convergence       8
thresh                14
jobtype               freq
scf_guess             read
scf_algorithm         diis
max_scf_cycles        100
$end

--------------------------------------------------------------

             Standard Nuclear Orientation (Angstroms)
    I     Atom           X                Y                Z
 ----------------------------------------------------------------
    1      C       1.4418909664     0.3939517949    -0.1068840294
    2      C       0.6999194144    -0.9402781619    -0.1232743720
    3      C      -0.6709638185    -0.8575397016    -0.7111046834
    4      C      -1.0540281985     0.2712267918     0.2906271977
    5      C      -0.4835563495     1.4440935063    -0.4782459635
    6      N       0.8102773706     1.4830806330    -0.5755299593
    7      H       2.4595428009     0.4635960344     0.2655097235
    8      H       1.3111486960    -1.8399422836    -0.1409522319
    9      H      -1.2917254470    -1.6047894461    -1.1786700651
   10      H      -2.0727185995     0.4019969906     0.6611208819
   11      H      -1.1177718402     2.0823287380    -1.0917887760
   12      C       0.0096898300    -0.4277794557     1.0898442361
   13      H      -0.0637468591    -0.8787489463     2.0761814633
 ----------------------------------------------------------------

    2    -286.7823843461      4.38E-09 Convergence criterion met
 Total energy in the final basis set = -286.78238435

                    Orbital Energies (a.u.)
 --------------------------------------------------------------

 Alpha MOs
 -- Occupied --
-14.329 -10.234 -10.227 -10.213 -10.209 -10.209 -10.195  -0.963
 -0.861  -0.747  -0.638  -0.623  -0.598  -0.536  -0.493  -0.455
 -0.449  -0.420  -0.401  -0.374  -0.352  -0.288  -0.278  -0.227
 -0.137

 Beta MOs
 -- Occupied --
-14.328 -10.233 -10.228 -10.209 -10.209 -10.209 -10.183  -0.960
 -0.852  -0.745  -0.629  -0.609  -0.593  -0.531  -0.490  -0.447
 -0.445  -0.418  -0.396  -0.367  -0.348  -0.281  -0.272  -0.205

          Ground-State Mulliken Net Atomic Charges

     Atom                 Charge (a.u.)    Spin (a.u.)
  --------------------------------------------------------
      1 C                     0.019592       0.032399
      2 C                    -0.182233      -0.037246
      3 C                    -0.125198       0.876472
      4 C                    -0.248374      -0.027899
      5 C                     0.099980      -0.045461
      6 N                    -0.337778       0.047841
      7 H                     0.157764       0.000886
      8 H                     0.143962       0.000066
      9 H                     0.142997      -0.044085
     10 H                     0.140671       0.002858
     11 H                     0.150162       0.002866
     12 C                    -0.111385       0.195763
     13 H                     0.149841      -0.004459
  --------------------------------------------------------
  Sum of atomic charges =     0.000000

                    Cartesian Multipole Moments
 -----------------------------------------------------------------
    Charge (ESU x 10^10)
                 0.0000
    Dipole Moment (Debye)
         X      -0.9393      Y      -1.6274      Z       1.0473
       Tot       2.1511
    Quadrupole Moments (Debye-Ang)
        XX     -37.2029     XY      -3.4620     YY     -41.8621
        XZ       1.4961     YZ      -0.0248     ZZ     -41.7125

 Frequency:      -627.58                -386.91                 -78.18
 Force Cnst:      0.3233                 0.2481                 0.0163
 Red. Mass:       1.3931                 2.8124                 4.5215
 IR Intens:       68.929                 10.096                  4.540
 Frequency:       431.27                 491.56                 572.61
 Force Cnst:      0.2605                 0.8312                 0.3043
 Red. Mass:       2.3775                 5.8387                 1.5754
 IR Intens:        4.710                  4.421                 20.367
 Frequency:       690.50                 701.97                 750.85
 Force Cnst:      1.7101                 1.6038                 0.4199
 Red. Mass:       6.0875                 5.5241                 1.2640
 IR Intens:        5.604                  6.154                 21.704
 Frequency:       808.17                 829.95                 860.29
 Force Cnst:      0.9826                 0.8209                 0.8507
 Red. Mass:       2.5534                 2.0226                 1.9509
 IR Intens:       35.082                  4.116                  9.339
 Frequency:       904.36                 933.43                 974.87
 Force Cnst:      1.2427                 1.0359                 0.8970
 Red. Mass:       2.5789                 2.0178                 1.6020
 IR Intens:       35.999                 15.246                  9.719
 Frequency:       992.23                1066.21                1106.32
 Force Cnst:      0.9657                 1.5594                 1.3311
 Red. Mass:       1.6649                 2.3283                 1.8459
 IR Intens:        4.863                  7.031                  4.509
 Frequency:      1163.47                1187.99                1194.87
 Force Cnst:      1.5240                 1.1073                 1.9293
 Red. Mass:       1.9108                 1.3317                 2.2936
 IR Intens:       17.356                  0.537                 14.611
 Frequency:      1260.50                1266.52                1304.76
 Force Cnst:      1.4131                 1.6120                 1.6415
 Red. Mass:       1.5095                 1.7057                 1.6365
 IR Intens:        6.222                  9.047                 14.076
 Frequency:      1353.20                1426.95                1577.25
 Force Cnst:      1.6448                 2.8880                10.3029
 Red. Mass:       1.5246                 2.4073                 7.0292
 IR Intens:        9.451                 12.027                 13.486
 Frequency:      3130.98                3170.38                3188.87
 Force Cnst:      6.2909                 6.4511                 6.5420
 Red. Mass:       1.0892                 1.0893                 1.0919
 IR Intens:       23.792                 26.292                 19.679
 Frequency:      3201.36                3220.69                3294.73
 Force Cnst:      6.6079                 6.6737                 7.0027
 Red. Mass:       1.0943                 1.0920                 1.0949
 IR Intens:        2.498                 10.430                  3.189

 STANDARD THERMODYNAMIC QUANTITIES AT   298.15 K  AND     1.00 ATM

   This Molecule has  3 Imaginary Frequencies
   Zero point vibrational energy:       61.553 kcal/mol

   Atom    1 Element C  Has Mass   12.00000
   Atom    2 Element C  Has Mass   12.00000
   Atom    3 Element C  Has Mass   12.00000
   Atom    4 Element C  Has Mass   12.00000
   Atom    5 Element C  Has Mass   12.00000
   Atom    6 Element N  Has Mass   14.00307
   Atom    7 Element H  Has Mass    1.00783
   Atom    8 Element H  Has Mass    1.00783
   Atom    9 Element H  Has Mass    1.00783
   Atom   10 Element H  Has Mass    1.00783
   Atom   11 Element H  Has Mass    1.00783
   Atom   12 Element C  Has Mass   12.00000
   Atom   13 Element H  Has Mass    1.00783
   Molecular Mass:    92.050050 amu
   Principal axes and moments of inertia in amu*Bohr^2:
                             1           2           3
    Eigenvalues --      372.19796   451.34249   602.43993
          X               0.32470     0.94582    -0.00038
          Y               0.90799    -0.31161     0.28010
          Z              -0.26481     0.09129     0.95997
   Rotational Symmetry Number is   1
   The Molecule is an Asymmetric Top
   Translational Enthalpy:        0.889 kcal/mol
   Rotational Enthalpy:           0.889 kcal/mol
   Vibrational Enthalpy:         62.532 kcal/mol
   gas constant (RT):             0.592 kcal/mol
   Translational Entropy:        39.471  cal/mol.K
   Rotational Entropy:           26.117  cal/mol.K
   Vibrational Entropy:           4.317  cal/mol.K

   Total Enthalpy:               64.902 kcal/mol
   Total Entropy:                69.905  cal/mol.K

 Total job time:  280.48s(wall), 271.45s(cpu)
        *  Thank you very much for using Q-Chem.  Have a nice day.  *
