 Q-Chem 5.0, Q-Chem, Inc., Pleasanton, CA (2017)
 Q-Chem 5.0.2 for Intel X86 EM64T Linux

User input:
--------------------------------------------------------------
$molecule
0 2
C        1.4418909664    0.3939517949   -0.1068840294
C        0.6999194144   -0.9402781619   -0.1232743720
C       -0.6709638185   -0.8575397016   -0.7111046834
C       -1.0540281985    0.2712267918    0.2906271977
C       -0.4835563495    1.4440935063   -0.4782459635
N        0.8102773706    1.4830806330   -0.5755299593
H        2.4595428009    0.4635960344    0.2655097235
H        1.3111486960   -1.8399422836   -0.1409522319
H       -1.2917254470   -1.6047894461   -1.1786700651
H       -2.0727185995    0.4019969906    0.6611208819
H       -1.1177718402    2.0823287380   -1.0917887760
C        0.0096898300   -0.4277794557    1.0898442361
H       -0.0637468591   -0.8787489463    2.0761814633
$end

$rem
method                b3lyp
basis                 6-31g(d)
unrestricted          true
symmetry              off
sym_ignore            true
incdft                false
incfock               0
scf_convergence       8
thresh                14
jobtype               sp
scf_guess             core
scf_guess_mix         5
scf_algorithm         diis
max_scf_cycles        100
$end

--------------------------------------------------------------

             Standard Nuclear Orientation (Angstroms)
    I     Atom           X                Y                Z
 ----------------------------------------------------------------
    1      C       1.4418909664     0.3939517949    -0.1068840294
    2      C       0.6999194144    -0.9402781619    -0.1232743720
    3      C      -0.6709638185    -0.8575397016    -0.7111046834
    4      C      -1.0540281985     0.2712267918     0.2906271977
    5      C      -0.4835563495     1.4440935063    -0.4782459635
    6      N       0.8102773706     1.4830806330    -0.5755299593
    7      H       2.4595428009     0.4635960344     0.2655097235
    8      H       1.3111486960    -1.8399422836    -0.1409522319
    9      H      -1.2917254470    -1.6047894461    -1.1786700651
   10      H      -2.0727185995     0.4019969906     0.6611208819
   11      H      -1.1177718402     2.0823287380    -1.0917887760
   12      C       0.0096898300    -0.4277794557     1.0898442361
   13      H      -0.0637468591    -0.8787489463     2.0761814633
 ----------------------------------------------------------------

   25    -286.7823843461      8.60E-09 Convergence criterion met
 Total energy in the final basis set = -286.78238435

                    Orbital Energies (a.u.)
 --------------------------------------------------------------

 Alpha MOs
 -- Occupied --
-14.329 -10.234 -10.227 -10.213 -10.209 -10.209 -10.195  -0.963
 -0.861  -0.747  -0.638  -0.623  -0.598  -0.536  -0.493  -0.455
 -0.449  -0.420  -0.401  -0.374  -0.352  -0.288  -0.278  -0.227
 -0.137

 Beta MOs
 -- Occupied --
-14.328 -10.233 -10.228 -10.209 -10.209 -10.209 -10.183  -0.960
 -0.852  -0.745  -0.629  -0.609  -0.593  -0.531  -0.490  -0.447
 -0.445  -0.418  -0.396  -0.367  -0.348  -0.281  -0.272  -0.205

          Ground-State Mulliken Net Atomic Charges

     Atom                 Charge (a.u.)    Spin (a.u.)
  --------------------------------------------------------
      1 C                     0.019593       0.032396
      2 C                    -0.182233      -0.037245
      3 C                    -0.125198       0.876471
      4 C                    -0.248374      -0.027898
      5 C                     0.099980      -0.045471
      6 N                    -0.337778       0.047848
      7 H                     0.157764       0.000886
      8 H                     0.143962       0.000066
      9 H                     0.142997      -0.044085
     10 H                     0.140671       0.002858
     11 H                     0.150162       0.002866
     12 C                    -0.111385       0.195767
     13 H                     0.149841      -0.004459
  --------------------------------------------------------
  Sum of atomic charges =     0.000000

                    Cartesian Multipole Moments
 -----------------------------------------------------------------
    Charge (ESU x 10^10)
                 0.0000
    Dipole Moment (Debye)
         X      -0.9393      Y      -1.6274      Z       1.0473
       Tot       2.1511
    Quadrupole Moments (Debye-Ang)
        XX     -37.2029     XY      -3.4620     YY     -41.8621
        XZ       1.4961     YZ      -0.0248     ZZ     -41.7125

 Total job time:  23.19s(wall), 64.67s(cpu)
        *  Thank you very much for using Q-Chem.  Have a nice day.  *
