 Q-Chem 5.0, Q-Chem, Inc., Pleasanton, CA (2017)
 Q-Chem 5.0.2 for Intel X86 EM64T Linux

User input:
--------------------------------------------------------------
$molecule
0 2
C        1.3784042585    0.4003618997   -0.0701552906
C        0.7575017867   -0.9520031978   -0.2761066785
C       -0.6763645901   -0.9526091268   -0.6954073333
C       -1.0621059945    0.3345912484    0.1117951026
C       -0.4664680365    1.5458417908   -0.4916912016
N        0.8386749427    1.5664762950   -0.5316862548
H        2.3746140752    0.4143112193    0.3620880771
H        1.3714034475   -1.8463586851   -0.2497419666
H       -1.2277271580   -1.8743211902   -0.5076377922
H       -2.0808819008    0.3919869727    0.4907483178
H       -1.0544990317    2.3529368460   -0.9197208008
C       -0.0028153191   -0.4325902818    0.9078303581
H       -0.1717785139   -0.9574272963    1.8465188847
$end

$rem
method                b3lyp
basis                 6-31g(d)
unrestricted          true
symmetry              off
sym_ignore            true
incdft                false
incfock               0
scf_convergence       6
thresh                14
jobtype               sp
scf_guess             read
scf_algorithm         diis
max_scf_cycles        100
stability_analysis    true
max_cis_cycles        100
cis_n_roots           4
$end

--------------------------------------------------------------

             Standard Nuclear Orientation (Angstroms)
    I     Atom           X                Y                Z
 ----------------------------------------------------------------
    1      C       1.3784042585     0.4003618997    -0.0701552906
    2      C       0.7575017867    -0.9520031978    -0.2761066785
    3      C      -0.6763645901    -0.9526091268    -0.6954073333
    4      C      -1.0621059945     0.3345912484     0.1117951026
    5      C      -0.4664680365     1.5458417908    -0.4916912016
    6      N       0.8386749427     1.5664762950    -0.5316862548
    7      H       2.3746140752     0.4143112193     0.3620880771
    8      H       1.3714034475    -1.8463586851    -0.2497419666
    9      H      -1.2277271580    -1.8743211902    -0.5076377922
   10      H      -2.0808819008     0.3919869727     0.4907483178
   11      H      -1.0544990317     2.3529368460    -0.9197208008
   12      C      -0.0028153191    -0.4325902818     0.9078303581
   13      H      -0.1717785139    -0.9574272963     1.8465188847
 ----------------------------------------------------------------

    2    -286.7917754032      2.82E-09 Convergence criterion met
 Total energy in the final basis set = -286.79177540

         TDDFT/TDA Excitation Energies
 ---------------------------------------------------

 Excited state   1: excitation energy (eV) =    1.9036
 Total energy for state  1:                  -286.72181956 au
    <S**2>     :  0.7827
    Trans. Mom.: -0.1517 X  -0.6539 Y  -0.0406 Z
    Strength   :     0.0210939502
    S(  1) --> V(  1) amplitude =  0.9644 alpha
    D( 24) --> S(  1) amplitude = -0.2019 beta

 Excited state   2: excitation energy (eV) =    3.5722
 Total energy for state  2:                  -286.66050012 au
    <S**2>     :  0.8655
    Trans. Mom.:  0.2911 X  -0.2575 Y   0.0518 Z
    Strength   :     0.0134537120
    S(  1) --> V(  2) amplitude =  0.9553 alpha

 Excited state   3: excitation energy (eV) =    3.9491
 Total energy for state  3:                  -286.64664879 au
    <S**2>     :  1.7667
    Trans. Mom.: -0.0951 X  -0.3000 Y  -0.0373 Z
    Strength   :     0.0097146216
    D( 24) --> V(  1) amplitude =  0.4800 alpha
    S(  1) --> V(  2) amplitude = -0.1579 alpha
    D( 22) --> S(  1) amplitude = -0.1696 beta
    D( 23) --> S(  1) amplitude = -0.1595 beta
    D( 24) --> S(  1) amplitude =  0.7358 beta
    D( 24) --> V(  1) amplitude =  0.2974 beta

 Excited state   4: excitation energy (eV) =    4.4148
 Total energy for state  4:                  -286.62953576 au
    <S**2>     :  1.1460
    Trans. Mom.: -0.1097 X  -0.0035 Y   0.0885 Z
    Strength   :     0.0021498812
    D( 24) --> V(  1) amplitude =  0.3621 alpha
    S(  1) --> V(  3) amplitude =  0.8289 alpha
    D( 24) --> S(  1) amplitude = -0.2353 beta
    D( 24) --> V(  1) amplitude =  0.3047 beta

 ---------------------------------------------------

                    Orbital Energies (a.u.)
 --------------------------------------------------------------

 Alpha MOs
 -- Occupied --
-14.316 -10.239 -10.234 -10.219 -10.218 -10.216 -10.208  -0.966
 -0.875  -0.755  -0.644  -0.625  -0.603  -0.547  -0.497  -0.450
 -0.439  -0.423  -0.412  -0.369  -0.363  -0.310  -0.267  -0.244
 -0.126

 Beta MOs
 -- Occupied --
-14.316 -10.240 -10.231 -10.216 -10.216 -10.210 -10.204  -0.961
 -0.871  -0.748  -0.636  -0.616  -0.600  -0.543  -0.492  -0.446
 -0.432  -0.419  -0.401  -0.363  -0.355  -0.291  -0.261  -0.234

          Ground-State Mulliken Net Atomic Charges

     Atom                 Charge (a.u.)    Spin (a.u.)
  --------------------------------------------------------
      1 C                     0.026428       0.246239
      2 C                    -0.172263       0.066090
      3 C                    -0.105647       0.576283
      4 C                    -0.249924       0.016048
      5 C                     0.096071       0.255437
      6 N                    -0.374142      -0.011728
      7 H                     0.152387      -0.010281
      8 H                     0.158734      -0.007404
      9 H                     0.146231      -0.004930
     10 H                     0.148683      -0.003167
     11 H                     0.138823      -0.013936
     12 C                    -0.125190      -0.126738
     13 H                     0.159811       0.018085
  --------------------------------------------------------
  Sum of atomic charges =    -0.000000

                    Cartesian Multipole Moments
 -----------------------------------------------------------------
    Charge (ESU x 10^10)
                -0.0000
    Dipole Moment (Debye)
         X      -0.9854      Y      -2.4656      Z       1.7794
       Tot       3.1963
    Quadrupole Moments (Debye-Ang)
        XX     -38.0007     XY      -4.1149     YY     -41.9590
        XZ       0.6267     YZ      -0.6272     ZZ     -42.6011

 Total job time:  91.98s(wall), 85.68s(cpu)
        *  Thank you very much for using Q-Chem.  Have a nice day.  *
