 Q-Chem 5.0, Q-Chem, Inc., Pleasanton, CA (2017)
 Q-Chem 5.0.2 for Intel X86 EM64T Linux

User input:
--------------------------------------------------------------
$molecule
0 2
C        1.8971984251    0.2740493145   -0.5361073664
C        1.2459137076   -0.9632674531   -0.6346891543
C       -0.0765072699   -1.0594478029   -0.2370396338
C       -0.7452312499    0.0937983533    0.2616426217
C        0.0336572926    1.2908312153    0.3095847326
N        1.3003488156    1.3867016300   -0.0709268702
H        2.9362621726    0.3797410279   -0.8412012353
H        1.7780705961   -1.8285668725   -1.0197773807
H       -0.6116480665   -2.0038752071   -0.2999359895
H       -2.6774642220   -0.8299070082    0.6468948197
H       -0.4300831383    2.2048005250    0.6816333215
C       -2.0859487614    0.0782627683    0.6823172581
H       -2.5645683021    0.9768795099    1.0576048761
$end

$rem
method                b3lyp
basis                 6-31g(d)
unrestricted          true
symmetry              off
sym_ignore            true
incdft                false
incfock               0
scf_convergence       8
thresh                14
jobtype               opt
scf_guess             read
scf_algorithm         diis
max_scf_cycles        100
geom_opt_tol_gradient 600
geom_opt_tol_displacement 2400
geom_opt_tol_energy   200
geom_opt_max_cycles   100
$end

--------------------------------------------------------------

    2    -286.9514917220      1.02E-09 Convergence criterion met
 Total energy in the final basis set = -286.95149172

             Standard Nuclear Orientation (Angstroms)
    I     Atom           X                Y                Z
 ----------------------------------------------------------------
    1      C       1.8969861036     0.2742311363    -0.5364468705
    2      C       1.2457704975    -0.9631403782    -0.6350870120
    3      C      -0.0765778243    -1.0595428070    -0.2375760726
    4      C      -0.7456421722     0.0939185444     0.2602100700
    5      C       0.0331916207     1.2911915594     0.3085149451
    6      N       1.3003112966     1.3867950367    -0.0708150175
    7      H       2.9363628616     0.3796478133    -0.8405587517
    8      H       1.7782670697    -1.8287926775    -1.0189356521
    9      H      -0.6113665595    -2.0041888331    -0.3001877353
   10      H      -2.6779060038    -0.8302097134     0.6479574911
   11      H      -0.4300813698     2.2044012907     0.6830112466
   12      C      -2.0854499723     0.0783099480     0.6827391171
   13      H      -2.5638655483     0.9773790809     1.0571742413
 ----------------------------------------------------------------

   10    -286.9514928389      5.49E-09 Convergence criterion met
 Total energy in the final basis set = -286.95149284
 Final energy is   -286.951492838928
 **  OPTIMIZATION CONVERGED  **

                    Orbital Energies (a.u.)
 --------------------------------------------------------------

 Alpha MOs
 -- Occupied --
-14.330 -10.226 -10.224 -10.210 -10.208 -10.203 -10.200  -0.940
 -0.818  -0.778  -0.695  -0.631  -0.601  -0.521  -0.493  -0.468
 -0.425  -0.415  -0.403  -0.401  -0.367  -0.315  -0.283  -0.252
 -0.193

 Beta MOs
 -- Occupied --
-14.332 -10.223 -10.220 -10.211 -10.206 -10.201 -10.193  -0.939
 -0.813  -0.772  -0.677  -0.627  -0.595  -0.517  -0.491  -0.465
 -0.422  -0.410  -0.399  -0.394  -0.365  -0.295  -0.270  -0.254

          Ground-State Mulliken Net Atomic Charges

     Atom                 Charge (a.u.)    Spin (a.u.)
  --------------------------------------------------------
      1 C                     0.030546       0.269786
      2 C                    -0.134452      -0.134634
      3 C                    -0.156724       0.246873
      4 C                     0.209021      -0.200639
      5 C                    -0.008635       0.242163
      6 N                    -0.402122      -0.110292
      7 H                     0.143451      -0.014110
      8 H                     0.138689       0.005311
      9 H                     0.139951      -0.011454
     10 H                     0.152025      -0.038422
     11 H                     0.140209      -0.012055
     12 C                    -0.407206       0.795715
     13 H                     0.155249      -0.038244
  --------------------------------------------------------
  Sum of atomic charges =     0.000000

                    Cartesian Multipole Moments
 -----------------------------------------------------------------
    Charge (ESU x 10^10)
                 0.0000
    Dipole Moment (Debye)
         X      -1.0902      Y      -1.8225      Z      -0.1026
       Tot       2.1262
    Quadrupole Moments (Debye-Ang)
        XX     -38.1831     XY      -3.5457     YY     -40.5162
        XZ      -2.5203     YZ       1.8243     ZZ     -42.0811

 Total job time:  13.82s(wall), 45.97s(cpu)
        *  Thank you very much for using Q-Chem.  Have a nice day.  *
