 Q-Chem 5.0, Q-Chem, Inc., Pleasanton, CA (2017)
 Q-Chem 5.0.2 for Intel X86 EM64T Linux

User input:
--------------------------------------------------------------
$molecule
0 2
C        1.3175376957    0.3260536462    0.1689661299
C        0.6050617281   -1.0118912234   -0.1161619115
C       -0.7148334659   -0.5389634140   -0.7755500819
C       -1.0622747948    0.2277333884    0.4700734380
C       -0.5489791095    0.9936570922   -0.7632769488
N        0.8043632618    1.3784219360   -0.6236768501
H        2.3653385129    0.3422216299    0.4481763777
H        1.1203351132   -1.9571519180   -0.2446515673
H       -1.3482001755   -1.0767966681   -1.4719831233
H       -2.0207837719    0.4078726176    0.9438399028
H       -1.2175742908    1.6244261708   -1.3386458080
C        0.2583858724   -0.2447165074    1.1292151607
H        0.4416234241   -0.4708667503    2.1736752817
$end

$rem
method                b3lyp
basis                 6-31g(d)
unrestricted          true
symmetry              off
sym_ignore            true
incdft                false
incfock               0
scf_convergence       8
thresh                14
jobtype               opt
scf_guess             read
scf_algorithm         diis
max_scf_cycles        100
geom_opt_tol_gradient 600
geom_opt_tol_displacement 2400
geom_opt_tol_energy   200
geom_opt_max_cycles   100
$end

--------------------------------------------------------------

    2    -286.8249799393      4.38E-10 Convergence criterion met
 Total energy in the final basis set = -286.82497994
   10    -286.8249829252      4.89E-09 Convergence criterion met
 Total energy in the final basis set = -286.82498293

             Standard Nuclear Orientation (Angstroms)
    I     Atom           X                Y                Z
 ----------------------------------------------------------------
    1      C       1.3180715061     0.3252427776     0.1672476387
    2      C       0.6049527943    -1.0113172719    -0.1161009418
    3      C      -0.7149956324    -0.5388300694    -0.7749664079
    4      C      -1.0626062039     0.2275215366     0.4710363775
    5      C      -0.5491859400     0.9931062076    -0.7639070427
    6      N       0.8039008708     1.3784720071    -0.6234488722
    7      H       2.3652314949     0.3432874281     0.4486218875
    8      H       1.1182483925    -1.9577484434    -0.2440085585
    9      H      -1.3458164512    -1.0765681495    -1.4739210314
   10      H      -2.0211113501     0.4086514852     0.9443432399
   11      H      -1.2179543701     1.6243454113    -1.3387257689
   12      C       0.2581816733    -0.2446110123     1.1299165015
   13      H       0.4430832156    -0.4715519071     2.1739129783
 ----------------------------------------------------------------

   10    -286.8249840216      4.71E-09 Convergence criterion met
 Total energy in the final basis set = -286.82498402
 Final energy is   -286.824984021575
 **  OPTIMIZATION CONVERGED  **

                    Orbital Energies (a.u.)
 --------------------------------------------------------------

 Alpha MOs
 -- Occupied --
-14.335 -10.215 -10.215 -10.207 -10.207 -10.207 -10.206  -0.986
 -0.836  -0.793  -0.649  -0.588  -0.574  -0.542  -0.533  -0.455
 -0.427  -0.415  -0.395  -0.384  -0.337  -0.275  -0.274  -0.248
 -0.212

 Beta MOs
 -- Occupied --
-14.319 -10.217 -10.217 -10.205 -10.205 -10.205 -10.205  -0.976
 -0.811  -0.789  -0.644  -0.585  -0.568  -0.537  -0.529  -0.453
 -0.423  -0.392  -0.389  -0.378  -0.322  -0.269  -0.257  -0.244

          Ground-State Mulliken Net Atomic Charges

     Atom                 Charge (a.u.)    Spin (a.u.)
  --------------------------------------------------------
      1 C                    -0.044752      -0.080352
      2 C                    -0.124698       0.089285
      3 C                    -0.124657       0.089101
      4 C                    -0.124669       0.089292
      5 C                    -0.045128      -0.080284
      6 N                    -0.285760       0.811493
      7 H                     0.149301       0.001047
      8 H                     0.143963      -0.002508
      9 H                     0.143969      -0.002492
     10 H                     0.144002      -0.002480
     11 H                     0.149357       0.001045
     12 C                    -0.124924       0.089328
     13 H                     0.143997      -0.002474
  --------------------------------------------------------
  Sum of atomic charges =     0.000000

                    Cartesian Multipole Moments
 -----------------------------------------------------------------
    Charge (ESU x 10^10)
                -0.0000
    Dipole Moment (Debye)
         X      -1.0898      Y      -1.8693      Z       0.8443
       Tot       2.3226
    Quadrupole Moments (Debye-Ang)
        XX     -37.7631     XY      -3.5659     YY     -43.2810
        XZ       2.6796     YZ       1.3209     ZZ     -39.5717

 Total job time:  43.09s(wall), 85.74s(cpu)
        *  Thank you very much for using Q-Chem.  Have a nice day.  *
