 Q-Chem 5.0, Q-Chem, Inc., Pleasanton, CA (2017)
 Q-Chem 5.0.2 for Intel X86 EM64T Linux

User input:
--------------------------------------------------------------
$molecule
0 2
C        1.5286042775    0.2579559974   -0.7044911869
C       -0.2550464958   -1.2907817984    0.0149866545
C       -1.4880621668   -1.1748815390    0.6058661523
C       -1.7245674756    0.2176719229    0.8256377655
C       -0.6287693243    0.9025980020    0.3620916938
N        0.2758265581   -0.0189430845   -0.1369616665
H        2.0387620498   -0.6390138148   -1.0662062358
H        0.3027718750   -2.1580622248   -0.3097460232
H       -2.1493767998   -1.9932181632    0.8566046537
H       -2.6046068783    0.6627905805    1.2701991738
H       -0.3999668787    1.9573290663    0.3281976183
C        2.0902711136    1.4445663525   -0.8230975780
H        3.0141601452    1.8319887033   -1.2230810213
$end

$rem
method                b3lyp
basis                 6-31g(d)
unrestricted          true
symmetry              off
sym_ignore            true
incdft                false
incfock               0
scf_convergence       8
thresh                14
jobtype               opt
scf_guess             read
scf_algorithm         diis
max_scf_cycles        100
geom_opt_tol_gradient 600
geom_opt_tol_displacement 2400
geom_opt_tol_energy   200
geom_opt_max_cycles   100
$end

--------------------------------------------------------------

    2    -286.8723773489      7.39E-10 Convergence criterion met
 Total energy in the final basis set = -286.87237735
   12    -286.8723842176      2.47E-09 Convergence criterion met
 Total energy in the final basis set = -286.87238422
   12    -286.8723897864      7.55E-09 Convergence criterion met
 Total energy in the final basis set = -286.87238979
   11    -286.8723918320      9.33E-09 Convergence criterion met
 Total energy in the final basis set = -286.87239183

             Standard Nuclear Orientation (Angstroms)
    I     Atom           X                Y                Z
 ----------------------------------------------------------------
    1      C       1.5330595538     0.2555713487    -0.6962905866
    2      C      -0.2568277310    -1.2910847999     0.0114789119
    3      C      -1.4907913547    -1.1743319475     0.6000449959
    4      C      -1.7235612211     0.2181955330     0.8254377659
    5      C      -0.6252877406     0.9020565146     0.3663360393
    6      N       0.2777674007    -0.0200654295    -0.1336204410
    7      H       2.0588150984    -0.6460285463    -1.0220786152
    8      H       0.2971856731    -2.1571546443    -0.3222466838
    9      H      -2.1562448741    -1.9913895690     0.8438146997
   10      H      -2.6017402588     0.6633402783     1.2737373825
   11      H      -0.3920005252     1.9561093211     0.3446732574
   12      C       2.0789260552     1.4460426912    -0.8456607619
   13      H       3.0006999242     1.8387392497    -1.2456259640
 ----------------------------------------------------------------

   11    -286.8723928333      4.68E-09 Convergence criterion met
 Total energy in the final basis set = -286.87239283
 Final energy is   -286.872392833307
 **  OPTIMIZATION CONVERGED  **

                    Orbital Energies (a.u.)
 --------------------------------------------------------------

 Alpha MOs
 -- Occupied --
-14.392 -10.242 -10.214 -10.205 -10.201 -10.171 -10.170  -0.988
 -0.817  -0.737  -0.720  -0.618  -0.574  -0.544  -0.513  -0.476
 -0.428  -0.423  -0.417  -0.386  -0.374  -0.303  -0.255  -0.224
 -0.210

 Beta MOs
 -- Occupied --
-14.391 -10.243 -10.205 -10.201 -10.198 -10.171 -10.170  -0.987
 -0.812  -0.725  -0.717  -0.605  -0.573  -0.543  -0.500  -0.466
 -0.424  -0.424  -0.414  -0.385  -0.374  -0.301  -0.216  -0.211

          Ground-State Mulliken Net Atomic Charges

     Atom                 Charge (a.u.)    Spin (a.u.)
  --------------------------------------------------------
      1 C                     0.068183      -0.140502
      2 C                     0.027521      -0.002624
      3 C                    -0.193464      -0.005381
      4 C                    -0.186567      -0.008659
      5 C                     0.037274       0.008945
      6 N                    -0.401214       0.019498
      7 H                     0.163173       0.068839
      8 H                     0.144886       0.000098
      9 H                     0.128614       0.001016
     10 H                     0.128867       0.000827
     11 H                     0.154908       0.000530
     12 C                    -0.244450       1.062428
     13 H                     0.172267      -0.005014
  --------------------------------------------------------
  Sum of atomic charges =    -0.000000

                    Cartesian Multipole Moments
 -----------------------------------------------------------------
    Charge (ESU x 10^10)
                 0.0000
    Dipole Moment (Debye)
         X       1.2518      Y      -0.3423      Z      -0.6224
       Tot       1.4393
    Quadrupole Moments (Debye-Ang)
        XX     -36.3426     XY      -0.1180     YY     -37.2379
        XZ      -4.0191     YZ       0.6943     ZZ     -42.9329

 Total job time:  90.59s(wall), 163.65s(cpu)
        *  Thank you very much for using Q-Chem.  Have a nice day.  *
