 Q-Chem 5.0, Q-Chem, Inc., Pleasanton, CA (2017)
 Q-Chem 5.0.2 for Intel X86 EM64T Linux

User input:
--------------------------------------------------------------
$molecule
0 2
C        0.8009712414   -0.4961334159   -0.0259176100
C        2.2696621220   -0.7635656895    0.1884726984
C        1.5823832253   -1.7642811005   -0.2614852715
C       -1.6790656886    1.1171565643   -0.0266559691
C       -1.1212553819    0.2917622329    1.0780419992
N       -0.0549043236   -0.4181804156    1.1114898170
H        0.4826926407    0.1086500725   -0.8908448211
H        3.1944874840   -0.3305268420    0.5360657065
H        1.5013018508   -2.7944984829   -0.5709554102
H       -2.6146580412    1.6267137121    0.2357961033
H       -1.7210312327    0.3005128704    1.9908393519
C       -1.1789453578    1.2852077173   -1.2387220383
H       -1.4616385380    1.8371827775   -2.1261245562
$end

$rem
method                b3lyp
basis                 6-31+g(d,p)
unrestricted          true
symmetry              off
sym_ignore            true
incdft                false
incfock               0
scf_convergence       8
thresh                14
jobtype               sp
scf_guess             core
scf_guess_mix         5
scf_algorithm         diis
max_scf_cycles        100
$end

--------------------------------------------------------------

             Standard Nuclear Orientation (Angstroms)
    I     Atom           X                Y                Z
 ----------------------------------------------------------------
    1      C       0.8009712414    -0.4961334159    -0.0259176100
    2      C       2.2696621220    -0.7635656895     0.1884726984
    3      C       1.5823832253    -1.7642811005    -0.2614852715
    4      C      -1.6790656886     1.1171565643    -0.0266559691
    5      C      -1.1212553819     0.2917622329     1.0780419992
    6      N      -0.0549043236    -0.4181804156     1.1114898170
    7      H       0.4826926407     0.1086500725    -0.8908448211
    8      H       3.1944874840    -0.3305268420     0.5360657065
    9      H       1.5013018508    -2.7944984829    -0.5709554102
   10      H      -2.6146580412     1.6267137121     0.2357961033
   11      H      -1.7210312327     0.3005128704     1.9908393519
   12      C      -1.1789453578     1.2852077173    -1.2387220383
   13      H      -1.4616385380     1.8371827775    -2.1261245562
 ----------------------------------------------------------------

   21    -286.7948928497      8.91E-09 Convergence criterion met
 Total energy in the final basis set = -286.79489285

                    Orbital Energies (a.u.)
 --------------------------------------------------------------

 Alpha MOs
 -- Occupied --
-14.337 -10.237 -10.237 -10.227 -10.219 -10.218 -10.214  -0.938
 -0.870  -0.785  -0.671  -0.599  -0.579  -0.542  -0.520  -0.496
 -0.458  -0.428  -0.386  -0.363  -0.313  -0.289  -0.284  -0.256
 -0.219

 Beta MOs
 -- Occupied --
-14.337 -10.236 -10.236 -10.219 -10.218 -10.216 -10.212  -0.938
 -0.870  -0.772  -0.662  -0.588  -0.579  -0.536  -0.512  -0.489
 -0.447  -0.423  -0.386  -0.361  -0.310  -0.287  -0.257  -0.250

          Ground-State Mulliken Net Atomic Charges

     Atom                 Charge (a.u.)    Spin (a.u.)
  --------------------------------------------------------
      1 C                    -0.099999       0.078485
      2 C                    -0.171775      -0.002051
      3 C                    -0.173816      -0.003209
      4 C                     0.011091      -0.206781
      5 C                    -0.143365       0.046558
      6 N                    -0.076603      -0.006285
      7 H                     0.133420      -0.019028
      8 H                     0.143058      -0.001383
      9 H                     0.142739      -0.001229
     10 H                     0.141147       0.080506
     11 H                     0.120687       0.003620
     12 C                    -0.178236       1.020116
     13 H                     0.151650       0.010680
  --------------------------------------------------------
  Sum of atomic charges =    -0.000000

                    Cartesian Multipole Moments
 -----------------------------------------------------------------
    Charge (ESU x 10^10)
                -0.0000
    Dipole Moment (Debye)
         X      -0.2194      Y       0.6559      Z      -1.2576
       Tot       1.4352
    Quadrupole Moments (Debye-Ang)
        XX     -35.8099     XY      -3.2435     YY     -39.4819
        XZ      -0.4563     YZ       1.2694     ZZ     -43.2176

 Total job time:  34.67s(wall), 98.58s(cpu)
        *  Thank you very much for using Q-Chem.  Have a nice day.  *
