 Q-Chem 5.0, Q-Chem, Inc., Pleasanton, CA (2017)
 Q-Chem 5.0.2 for Intel X86 EM64T Linux

User input:
--------------------------------------------------------------
$molecule
0 2
C        0.7939399765   -0.4589053702   -0.1041351381
C        2.2566726772   -0.7409352510    0.1522431912
C        1.5713748105   -1.7403958364   -0.2994955608
C       -1.8168176786    1.1894388859    0.0265806197
C       -1.1429801940    0.3189736438    1.0431670082
N       -0.0696652783   -0.3755563555    1.0245764159
H        0.5144685049    0.1305154731   -0.9803362514
H        3.1731364385   -0.3162830460    0.5312896027
H        1.4841054353   -2.7786817248   -0.5793103761
H       -2.7314911636    1.6309554285    0.4351551956
H       -1.7011474855    0.2865033940    1.9824950401
C       -1.5248284489    1.5063490361   -1.2212353580
H       -0.8067675940    1.3480217226   -2.0109943889
$end

$rem
method                b3lyp
basis                 6-31+g(d,p)
unrestricted          true
symmetry              off
sym_ignore            true
incdft                false
incfock               0
scf_convergence       8
thresh                14
jobtype               sp
scf_guess             core
scf_guess_mix         5
scf_algorithm         diis
max_scf_cycles        100
$end

--------------------------------------------------------------

             Standard Nuclear Orientation (Angstroms)
    I     Atom           X                Y                Z
 ----------------------------------------------------------------
    1      C       0.7939399765    -0.4589053702    -0.1041351381
    2      C       2.2566726772    -0.7409352510     0.1522431912
    3      C       1.5713748105    -1.7403958364    -0.2994955608
    4      C      -1.8168176786     1.1894388859     0.0265806197
    5      C      -1.1429801940     0.3189736438     1.0431670082
    6      N      -0.0696652783    -0.3755563555     1.0245764159
    7      H       0.5144685049     0.1305154731    -0.9803362514
    8      H       3.1731364385    -0.3162830460     0.5312896027
    9      H       1.4841054353    -2.7786817248    -0.5793103761
   10      H      -2.7314911636     1.6309554285     0.4351551956
   11      H      -1.7011474855     0.2865033940     1.9824950401
   12      C      -1.5248284489     1.5063490361    -1.2212353580
   13      H      -0.8067675940     1.3480217226    -2.0109943889
 ----------------------------------------------------------------

   23    -286.7912320133      3.52E-09 Convergence criterion met
 Total energy in the final basis set = -286.79123201

                    Orbital Energies (a.u.)
 --------------------------------------------------------------

 Alpha MOs
 -- Occupied --
-14.340 -10.244 -10.242 -10.231 -10.222 -10.221 -10.217  -0.940
 -0.873  -0.787  -0.676  -0.604  -0.581  -0.554  -0.523  -0.495
 -0.467  -0.422  -0.388  -0.365  -0.316  -0.292  -0.282  -0.259
 -0.225

 Beta MOs
 -- Occupied --
-14.340 -10.244 -10.241 -10.222 -10.221 -10.219 -10.216  -0.940
 -0.872  -0.773  -0.666  -0.592  -0.582  -0.548  -0.520  -0.489
 -0.457  -0.415  -0.389  -0.364  -0.313  -0.290  -0.259  -0.253

          Ground-State Mulliken Net Atomic Charges

     Atom                 Charge (a.u.)    Spin (a.u.)
  --------------------------------------------------------
      1 C                     0.003074       0.070310
      2 C                    -0.219449      -0.020999
      3 C                    -0.220672      -0.019557
      4 C                    -0.034017      -0.179954
      5 C                    -0.139702       0.078575
      6 N                    -0.105246      -0.026686
      7 H                     0.091991      -0.003263
      8 H                     0.144494      -0.000763
      9 H                     0.144197      -0.000705
     10 H                     0.146153       0.055512
     11 H                     0.122131       0.014155
     12 C                    -0.089044       1.034584
     13 H                     0.156089      -0.001210
  --------------------------------------------------------
  Sum of atomic charges =     0.000000

                    Cartesian Multipole Moments
 -----------------------------------------------------------------
    Charge (ESU x 10^10)
                 0.0000
    Dipole Moment (Debye)
         X       0.6993      Y      -0.0543      Z      -1.0102
       Tot       1.2299
    Quadrupole Moments (Debye-Ang)
        XX     -38.2205     XY      -0.7491     YY     -41.6919
        XZ      -2.6306     YZ       2.6698     ZZ     -43.0089

 Total job time:  41.20s(wall), 107.77s(cpu)
        *  Thank you very much for using Q-Chem.  Have a nice day.  *
