 Q-Chem 5.0, Q-Chem, Inc., Pleasanton, CA (2017)
 Q-Chem 5.0.2 for Intel X86 EM64T Linux

User input:
--------------------------------------------------------------
$molecule
0 2
C        0.0319485283   -0.5337668699   -0.1425857137
C        1.5576897038   -0.4984004590   -0.0351246496
C        2.3712215611   -1.3289449842   -0.6414729201
C       -1.3589208823    1.2881309610    0.1043302615
C       -1.3434970242    0.4243684953    1.2948508665
N       -0.5759230120   -0.6083630507    1.1970553578
H       -0.2666323971   -1.4323160383   -0.6995334164
H        1.9458640397    0.3020573530    0.5969548650
H        2.2983203942   -2.1875572535   -1.2977030829
H       -1.9365281603    2.1984881982   -0.0106079745
H       -1.9199418631    0.6083314139    2.2007869336
C       -0.5297946791    0.7130034740   -0.7854529919
H       -0.2738062086    1.0549687600   -1.7814975357
****
C        0.6333592587   -0.6445806743   -0.1615282847
C        2.1383341996   -0.6036047416   -0.0746437542
C        1.6208029646   -1.7847042792   -0.1710580891
C       -1.8116800265    1.1419425611   -0.0116907800
C       -1.1690844304    0.3026148212    1.0477225197
N       -0.1297826265   -0.4378224226    1.0301915795
H        0.1423870256   -0.3573785005   -1.0970880473
H        2.9929328068    0.0453271447    0.0497581915
H        1.7232747441   -2.8591597996   -0.1967569671
H       -2.8699380501    1.3365219622    0.1878635146
H       -1.7085175368    0.3443476788    2.0000063706
C       -1.2675092561    1.7098837494   -1.0699511351
H       -0.2945790729    1.8066125004   -1.5328251183
$end

$rem
method                b3lyp
basis                 6-31g(d)
unrestricted          true
symmetry              off
sym_ignore            true
incdft                false
incfock               0
scf_convergence       8
thresh                14
jobtype               fsm
scf_guess             core
scf_guess_mix         5
scf_algorithm         diis
max_scf_cycles        100
fsm_nnode             21
fsm_ngrad             6
fsm_mode              2
fsm_opt_mode          2
$end

--------------------------------------------------------------

   24    -286.8505822530      7.40E-09 Convergence criterion met
 Total energy in the final basis set = -286.85058225
   22    -286.7674838762      8.24E-09 Convergence criterion met
 Total energy in the final basis set = -286.76748388
   24    -286.8474102185      7.59E-09 Convergence criterion met
 Total energy in the final basis set = -286.84741022
   24    -286.8477873646      9.95E-09 Convergence criterion met
 Total energy in the final basis set = -286.84778736
   23    -286.8485316443      9.18E-09 Convergence criterion met
 Total energy in the final basis set = -286.84853164
   24    -286.8436461296      8.22E-09 Convergence criterion met
 Total energy in the final basis set = -286.84364613
   24    -286.8469365950      8.06E-09 Convergence criterion met
 Total energy in the final basis set = -286.84693660
   24    -286.7659481294      2.57E-09 Convergence criterion met
 Total energy in the final basis set = -286.71493889
   25    -286.7143948692      5.43E-09 Convergence criterion met
 Total energy in the final basis set = -286.71439487
   24    -286.7149496643      8.31E-09 Convergence criterion met
 Total energy in the final basis set = -286.71494966
   25    -286.7143855540      5.44E-09 Convergence criterion met
 Total energy in the final basis set = -286.71438555
   24    -286.7149674430      8.26E-09 Convergence criterion met
 Total energy in the final basis set = -286.71496744
   25    -286.7143694798      5.44E-09 Convergence criterion met
 Total energy in the final basis set = -286.71436948
   24    -286.7149843592      8.28E-09 Convergence criterion met
 Total energy in the final basis set = -286.71498436
   25    -286.7143539987      5.46E-09 Convergence criterion met
 Total energy in the final basis set = -286.71435400

                    Orbital Energies (a.u.)
 --------------------------------------------------------------

 Alpha MOs
 -- Occupied --
-14.323 -10.236 -10.229 -10.216 -10.209 -10.202 -10.201  -0.930
 -0.835  -0.764  -0.666  -0.584  -0.576  -0.547  -0.497  -0.485
 -0.453  -0.433  -0.412  -0.336  -0.292  -0.284  -0.261  -0.231
 -0.154

 Beta MOs
 -- Occupied --
-14.324 -10.237 -10.228 -10.216 -10.204 -10.203 -10.188  -0.930
 -0.831  -0.751  -0.659  -0.573  -0.567  -0.541  -0.492  -0.479
 -0.446  -0.429  -0.409  -0.334  -0.289  -0.282  -0.255  -0.201

          Ground-State Mulliken Net Atomic Charges

     Atom                 Charge (a.u.)    Spin (a.u.)
  --------------------------------------------------------
      1 C                    -0.049673      -0.097582
      2 C                    -0.132701      -0.025735
      3 C                    -0.150210       0.301748
      4 C                    -0.192607      -0.153862
      5 C                     0.061811       0.052310
      6 N                    -0.340503      -0.029251
      7 H                     0.184445       0.023076
      8 H                     0.146140       0.016955
      9 H                     0.185480      -0.012119
     10 H                     0.139477       0.064650
     11 H                     0.140952       0.012131
     12 C                    -0.180450       0.890781
     13 H                     0.187839      -0.043102
  --------------------------------------------------------
  Sum of atomic charges =    -0.000000

                    Cartesian Multipole Moments
 -----------------------------------------------------------------
    Charge (ESU x 10^10)
                -0.0000
    Dipole Moment (Debye)
         X       0.1116      Y       0.4574      Z      -1.4894
       Tot       1.5620
    Quadrupole Moments (Debye-Ang)
        XX     -38.2846     XY      -1.4365     YY     -39.0928
        XZ      -2.7298     YZ       3.2276     ZZ     -40.5361

             Standard Nuclear Orientation (Angstroms)
    I     Atom           X                Y                Z
 ----------------------------------------------------------------
    1      C       0.4626089712    -0.7358276611    -0.1898015025
    2      C       1.9138763224    -0.5068117572    -0.1542609568
    3      C       1.9059120474    -1.7981251474    -0.1467010573
    4      C      -1.6526157571     1.2960540915     0.0835327819
    5      C      -1.2458117703     0.2537268177     1.0877487062
    6      N      -0.2972473702    -0.6070944013     0.9895285086
    7      H      -0.0524924453    -1.0880450298    -1.0858417219
    8      H       2.5595235709     0.3409121928     0.0737927350
    9      H       2.0424273248    -2.8418838773    -0.3388872675
   10      H      -2.5751091271     1.8320024174     0.3147596440
   11      H      -1.8025865445     0.2592810144     2.0322031526
   12      C      -0.9207312344     1.5882413816    -0.9692106382
   13      H      -0.4013800593     1.9539787650    -1.8278659926
 ----------------------------------------------------------------

 Total job time:  2765.86s(wall), 4612.65s(cpu)
        *  Thank you very much for using Q-Chem.  Have a nice day.  *
