 Q-Chem 5.0, Q-Chem, Inc., Pleasanton, CA (2017)
 Q-Chem 5.0.2 for Intel X86 EM64T Linux

User input:
--------------------------------------------------------------
$molecule
0 2
C        0.7883701540   -0.4763199672   -0.0796828912
C        2.2557055647   -0.7521665866    0.1544128751
C        1.5695751584   -1.7516037179   -0.2969553767
C       -1.7720064546    1.1504793230    0.0163751215
C       -1.1364407714    0.2934674644    1.0677901296
N       -0.0641254742   -0.4040718053    1.0604232432
H        0.4875204164    0.1209665363   -0.9456809340
H        3.1759803128   -0.3245410482    0.5205364612
H        1.4850718100   -2.7865230729   -0.5896582651
H       -2.6990057884    1.6150434468    0.3836609895
H       -1.7088182741    0.2748609771    1.9992235212
C       -1.3865648296    1.3988285512   -1.2114259291
H       -1.0588878955    1.5879887054   -2.2100225538
$end

$rem
method                b3lyp
basis                 6-31+g(d,p)
unrestricted          true
symmetry              off
sym_ignore            true
incdft                false
incfock               0
scf_convergence       8
thresh                14
jobtype               rpath
scf_guess             core
scf_guess_mix         5
scf_algorithm         diis
max_scf_cycles        100
rpath_direction       1
rpath_tol_displacement 1000
rpath_max_cycles      50
geom_opt_max_cycles   300
geom_opt_hessian      read
$end

--------------------------------------------------------------

   22    -286.7863656004      7.34E-09 Convergence criterion met
 Total energy in the final basis set = -286.78636560
   22    -286.7868731370      7.57E-09 Convergence criterion met
 Total energy in the final basis set = -286.78687314
   23    -286.7857455876      5.66E-09 Convergence criterion met
 Total energy in the final basis set = -286.78574559
   22    -286.7868775368      7.60E-09 Convergence criterion met
 Total energy in the final basis set = -286.78687754
   22    -286.7878250243      7.10E-09 Convergence criterion met
 Total energy in the final basis set = -286.78782502
   22    -286.7867930643      8.12E-09 Convergence criterion met
 Total energy in the final basis set = -286.78679306
   22    -286.7880329770      7.13E-09 Convergence criterion met
 Total energy in the final basis set = -286.78803298
   22    -286.7864205478      5.51E-09 Convergence criterion met
 Total energy in the final basis set = -286.78972536
   23    -286.7912310185      3.72E-09 Convergence criterion met
 Total energy in the final basis set = -286.79123102
   23    -286.7912275741      3.43E-09 Convergence criterion met
 Total energy in the final basis set = -286.79122757
   23    -286.7912331812      3.54E-09 Convergence criterion met
 Total energy in the final basis set = -286.79123318
   22    -286.7882146782      5.11E-09 Convergence criterion met
 Total energy in the final basis set = -286.78821468
   23    -286.7912352651      3.45E-09 Convergence criterion met
 Total energy in the final basis set = -286.79123527
   23    -286.7912347166      3.56E-09 Convergence criterion met
 Total energy in the final basis set = -286.79123472
   23    -286.7912360048      3.52E-09 Convergence criterion met
 Total energy in the final basis set = -286.79123600

                    Orbital Energies (a.u.)
 --------------------------------------------------------------

 Alpha MOs
 -- Occupied --
-14.340 -10.244 -10.242 -10.231 -10.222 -10.221 -10.217  -0.940
 -0.873  -0.787  -0.676  -0.604  -0.581  -0.554  -0.523  -0.495
 -0.467  -0.422  -0.388  -0.365  -0.316  -0.292  -0.282  -0.259
 -0.225

 Beta MOs
 -- Occupied --
-14.340 -10.244 -10.241 -10.222 -10.221 -10.219 -10.216  -0.940
 -0.872  -0.773  -0.666  -0.592  -0.582  -0.548  -0.520  -0.489
 -0.458  -0.415  -0.389  -0.364  -0.313  -0.290  -0.259  -0.253

          Ground-State Mulliken Net Atomic Charges

     Atom                 Charge (a.u.)    Spin (a.u.)
  --------------------------------------------------------
      1 C                     0.003208       0.070266
      2 C                    -0.219520      -0.020975
      3 C                    -0.220732      -0.019532
      4 C                    -0.033913      -0.179883
      5 C                    -0.139676       0.078521
      6 N                    -0.105232      -0.026609
      7 H                     0.091993      -0.003252
      8 H                     0.144492      -0.000762
      9 H                     0.144195      -0.000703
     10 H                     0.146166       0.055500
     11 H                     0.122095       0.014192
     12 C                    -0.089132       1.034420
     13 H                     0.156056      -0.001183
  --------------------------------------------------------
  Sum of atomic charges =     0.000000

                    Cartesian Multipole Moments
 -----------------------------------------------------------------
    Charge (ESU x 10^10)
                 0.0000
    Dipole Moment (Debye)
         X       0.6977      Y      -0.0519      Z      -1.0114
       Tot       1.2298
    Quadrupole Moments (Debye-Ang)
        XX     -38.2365     XY      -0.7370     YY     -41.7039
        XZ      -2.6472     YZ       2.6778     ZZ     -42.9700

             Standard Nuclear Orientation (Angstroms)
    I     Atom           X                Y                Z
 ----------------------------------------------------------------
    1      C       0.7883701540    -0.4763199672    -0.0796828912
    2      C       2.2557055647    -0.7521665866     0.1544128751
    3      C       1.5695751584    -1.7516037179    -0.2969553767
    4      C      -1.7720064546     1.1504793230     0.0163751215
    5      C      -1.1364407714     0.2934674644     1.0677901296
    6      N      -0.0641254742    -0.4040718053     1.0604232432
    7      H       0.4875204164     0.1209665363    -0.9456809340
    8      H       3.1759803128    -0.3245410482     0.5205364612
    9      H       1.4850718100    -2.7865230729    -0.5896582651
   10      H      -2.6990057884     1.6150434468     0.3836609895
   11      H      -1.7088182741     0.2748609771     1.9992235212
   12      C      -1.3865648296     1.3988285512    -1.2114259291
   13      H      -1.0588878955     1.5879887054    -2.2100225538
 ----------------------------------------------------------------

 Total job time:  10341.44s(wall), 27361.50s(cpu)
        *  Thank you very much for using Q-Chem.  Have a nice day.  *
