 Q-Chem 5.0, Q-Chem, Inc., Pleasanton, CA (2017)
 Q-Chem 5.0.2 for Intel X86 EM64T Linux

User input:
--------------------------------------------------------------
$molecule
0 2
C        0.0319714848   -0.5333175667   -0.1427400561
C        1.5576113711   -0.4988355063   -0.0351273078
C        2.3711780219   -1.3299123757   -0.6406536961
C       -1.3603029260    1.2874427662    0.1039385723
C       -1.3430895248    0.4247886342    1.2952133943
N       -0.5766590089   -0.6087100396    1.1965567815
H       -0.2668709717   -1.4316102531   -0.6999986983
H        1.9464765813    0.3017313693    0.5964272419
H        2.2991653582   -2.1878093685   -1.2978372333
H       -1.9380964353    2.1976527738   -0.0111081502
H       -1.9187150676    0.6090736045    2.2016245916
C       -0.5296299095    0.7136112444   -0.7852588237
H       -0.2730389731    1.0558947172   -1.7810366164
$end

$rem
method                b3lyp
basis                 6-31g(d)
unrestricted          true
symmetry              off
sym_ignore            true
incdft                false
incfock               0
scf_convergence       8
thresh                14
jobtype               opt
scf_guess             core
scf_guess_mix         5
scf_algorithm         diis
max_scf_cycles        100
geom_opt_max_cycles   300
$end

--------------------------------------------------------------

   24    -286.8505816570      7.41E-09 Convergence criterion met
 Total energy in the final basis set = -286.85058166

             Standard Nuclear Orientation (Angstroms)
    I     Atom           X                Y                Z
 ----------------------------------------------------------------
    1      C       0.0319485283    -0.5337668699    -0.1425857137
    2      C       1.5576897038    -0.4984004590    -0.0351246496
    3      C       2.3712215611    -1.3289449842    -0.6414729201
    4      C      -1.3589208823     1.2881309610     0.1043302615
    5      C      -1.3434970242     0.4243684953     1.2948508665
    6      N      -0.5759230120    -0.6083630507     1.1970553578
    7      H      -0.2666323971    -1.4323160383    -0.6995334164
    8      H       1.9458640397     0.3020573530     0.5969548650
    9      H       2.2983203942    -2.1875572535    -1.2977030829
   10      H      -1.9365281603     2.1984881982    -0.0106079745
   11      H      -1.9199418631     0.6083314139     2.2007869336
   12      C      -0.5297946791     0.7130034740    -0.7854529919
   13      H      -0.2738062086     1.0549687600    -1.7814975357
 ----------------------------------------------------------------

   16    -286.8505822533      5.36E-09 Convergence criterion met
 Total energy in the final basis set = -286.85058225
 Final energy is   -286.850582253314
 **  OPTIMIZATION CONVERGED  **

                    Orbital Energies (a.u.)
 --------------------------------------------------------------

 Alpha MOs
 -- Occupied --
-14.323 -10.230 -10.227 -10.209 -10.205 -10.202 -10.201  -0.946
 -0.791  -0.769  -0.704  -0.587  -0.563  -0.555  -0.514  -0.469
 -0.425  -0.411  -0.404  -0.374  -0.332  -0.283  -0.265  -0.252
 -0.234

 Beta MOs
 -- Occupied --
-14.323 -10.229 -10.227 -10.205 -10.204 -10.201 -10.194  -0.945
 -0.783  -0.767  -0.692  -0.577  -0.558  -0.551  -0.513  -0.462
 -0.416  -0.409  -0.401  -0.370  -0.328  -0.278  -0.264  -0.248

          Ground-State Mulliken Net Atomic Charges

     Atom                 Charge (a.u.)    Spin (a.u.)
  --------------------------------------------------------
      1 C                    -0.095475       0.072656
      2 C                    -0.075903      -0.163860
      3 C                    -0.194428       1.044388
      4 C                    -0.140987       0.003048
      5 C                     0.051962       0.008545
      6 N                    -0.364038      -0.003109
      7 H                     0.173558      -0.003397
      8 H                     0.157889       0.037394
      9 H                     0.160477       0.001735
     10 H                     0.142792       0.000374
     11 H                     0.145209       0.000650
     12 C                    -0.113585       0.001790
     13 H                     0.152530      -0.000213
  --------------------------------------------------------
  Sum of atomic charges =    -0.000000

                    Cartesian Multipole Moments
 -----------------------------------------------------------------
    Charge (ESU x 10^10)
                -0.0000
    Dipole Moment (Debye)
         X      -0.9589      Y       1.3958      Z      -1.6042
       Tot       2.3326
    Quadrupole Moments (Debye-Ang)
        XX     -41.2274     XY      -2.3665     YY     -38.9354
        XZ      -1.3232     YZ       4.3515     ZZ     -40.6057

 Total job time:  70.65s(wall), 117.17s(cpu)
        *  Thank you very much for using Q-Chem.  Have a nice day.  *
