 Q-Chem 5.0, Q-Chem, Inc., Pleasanton, CA (2017)
 Q-Chem 5.0.2 for Intel X86 EM64T Linux

User input:
--------------------------------------------------------------
$molecule
0 2
C        0.6361521759   -0.6402014665   -0.1611847363
C        2.1410583663   -0.6065448478   -0.0723411055
C        1.6183799667   -1.7849237975   -0.1723817372
C       -1.8147451428    1.1387689623   -0.0129924155
C       -1.1676833163    0.3044580954    1.0481538219
N       -0.1257894915   -0.4322544217    1.0309754361
H        0.1481540409   -0.3490608421   -1.0971553315
H        2.9981662484    0.0384734305    0.0542579594
H        1.7154736240   -2.8597987232   -0.2004467662
H       -2.8743916844    1.3288367082    0.1855599930
H       -1.7048042684    0.3477168038    2.0016850729
C       -1.2718271235    1.7072839776   -1.0714398701
H       -0.2981433953    1.8072461211   -1.5326903209
$end

$rem
method                b3lyp
basis                 6-31g(d)
unrestricted          true
symmetry              off
sym_ignore            true
incdft                false
incfock               0
scf_convergence       8
thresh                14
jobtype               opt
scf_guess             core
scf_guess_mix         5
scf_algorithm         diis
max_scf_cycles        100
geom_opt_max_cycles   300
$end

--------------------------------------------------------------

   22    -286.7674814313      8.16E-09 Convergence criterion met
 Total energy in the final basis set = -286.76748143
   17    -286.7674813349      3.35E-09 Convergence criterion met
 Total energy in the final basis set = -286.76748133
   17    -286.7674835965      3.32E-09 Convergence criterion met
 Total energy in the final basis set = -286.76748360

             Standard Nuclear Orientation (Angstroms)
    I     Atom           X                Y                Z
 ----------------------------------------------------------------
    1      C       0.6333592587    -0.6445806743    -0.1615282847
    2      C       2.1383341996    -0.6036047416    -0.0746437542
    3      C       1.6208029646    -1.7847042792    -0.1710580891
    4      C      -1.8116800265     1.1419425611    -0.0116907800
    5      C      -1.1690844304     0.3026148212     1.0477225197
    6      N      -0.1297826265    -0.4378224226     1.0301915795
    7      H       0.1423870256    -0.3573785005    -1.0970880473
    8      H       2.9929328068     0.0453271447     0.0497581915
    9      H       1.7232747441    -2.8591597996    -0.1967569671
   10      H      -2.8699380501     1.3365219622     0.1878635146
   11      H      -1.7085175368     0.3443476788     2.0000063706
   12      C      -1.2675092561     1.7098837494    -1.0699511351
   13      H      -0.2945790729     1.8066125004    -1.5328251183
 ----------------------------------------------------------------

   17    -286.7674840093      3.32E-09 Convergence criterion met
 Total energy in the final basis set = -286.76748401
 Final energy is   -286.767484009313
 **  OPTIMIZATION CONVERGED  **

                    Orbital Energies (a.u.)
 --------------------------------------------------------------

 Alpha MOs
 -- Occupied --
-14.324 -10.232 -10.231 -10.218 -10.210 -10.208 -10.204  -0.927
 -0.861  -0.776  -0.662  -0.593  -0.572  -0.542  -0.512  -0.481
 -0.458  -0.419  -0.373  -0.350  -0.307  -0.278  -0.270  -0.249
 -0.217

 Beta MOs
 -- Occupied --
-14.324 -10.231 -10.230 -10.210 -10.208 -10.206 -10.203  -0.927
 -0.860  -0.762  -0.652  -0.581  -0.572  -0.537  -0.510  -0.476
 -0.448  -0.412  -0.373  -0.350  -0.304  -0.275  -0.253  -0.236

          Ground-State Mulliken Net Atomic Charges

     Atom                 Charge (a.u.)    Spin (a.u.)
  --------------------------------------------------------
      1 C                    -0.020671       0.010278
      2 C                    -0.123472      -0.001264
      3 C                    -0.116628       0.000042
      4 C                    -0.159105      -0.164913
      5 C                     0.025683       0.078898
      6 N                    -0.338180      -0.021489
      7 H                     0.131557      -0.001763
      8 H                     0.152140      -0.000366
      9 H                     0.153829      -0.000532
     10 H                     0.153173       0.047833
     11 H                     0.138149       0.014549
     12 C                    -0.169642       1.037656
     13 H                     0.173167       0.001072
  --------------------------------------------------------
  Sum of atomic charges =    -0.000000

                    Cartesian Multipole Moments
 -----------------------------------------------------------------
    Charge (ESU x 10^10)
                -0.0000
    Dipole Moment (Debye)
         X       0.5753      Y       0.1817      Z      -0.8858
       Tot       1.0718
    Quadrupole Moments (Debye-Ang)
        XX     -36.0973     XY      -0.3399     YY     -39.3766
        XZ      -2.8348     YZ       1.4869     ZZ     -42.8831

 Total job time:  144.26s(wall), 208.32s(cpu)
        *  Thank you very much for using Q-Chem.  Have a nice day.  *
