 Q-Chem 5.0, Q-Chem, Inc., Pleasanton, CA (2017)
 Q-Chem 5.0.2 for Intel X86 EM64T Linux

User input:
--------------------------------------------------------------
$molecule
0 2
C        0.7848755629   -0.4822174385   -0.0798482646
C        2.2526821648   -0.7502241617    0.1533838645
C        1.5714196860   -1.7537596532   -0.2914879340
C       -1.7712263058    1.1527702996    0.0157412983
C       -1.1359229008    0.2926919098    1.0641550819
N       -0.0675692106   -0.4077497435    1.0608406024
H        0.4818874335    0.1091611892   -0.9507259987
H        3.1747394959   -0.3180092032    0.5122835730
H        1.4956570306   -2.7907261483   -0.5827359762
H       -2.6988555271    1.6154444477    0.3863710622
H       -1.7107659496    0.2761988387    1.9956366413
C       -1.3829046070    1.4034528303   -1.2084303812
H       -1.0576429443    1.5993756393   -2.2061871774
$end

$rem
method                b3lyp
basis                 6-31+g(d,p)
unrestricted          true
symmetry              off
sym_ignore            true
incdft                false
incfock               0
scf_convergence       6
thresh                14
jobtype               sp
scf_guess             read
scf_algorithm         diis
max_scf_cycles        100
stability_analysis    true
max_cis_cycles        100
cis_n_roots           4
$end

--------------------------------------------------------------

             Standard Nuclear Orientation (Angstroms)
    I     Atom           X                Y                Z
 ----------------------------------------------------------------
    1      C       0.7848755629    -0.4822174385    -0.0798482646
    2      C       2.2526821648    -0.7502241617     0.1533838645
    3      C       1.5714196860    -1.7537596532    -0.2914879340
    4      C      -1.7712263058     1.1527702996     0.0157412983
    5      C      -1.1359229008     0.2926919098     1.0641550819
    6      N      -0.0675692106    -0.4077497435     1.0608406024
    7      H       0.4818874335     0.1091611892    -0.9507259987
    8      H       3.1747394959    -0.3180092032     0.5122835730
    9      H       1.4956570306    -2.7907261483    -0.5827359762
   10      H      -2.6988555271     1.6154444477     0.3863710622
   11      H      -1.7107659496     0.2761988387     1.9956366413
   12      C      -1.3829046070     1.4034528303    -1.2084303812
   13      H      -1.0576429443     1.5993756393    -2.2061871774
 ----------------------------------------------------------------

    2    -286.7863396744      3.15E-09 Convergence criterion met
 Total energy in the final basis set = -286.78633967

         TDDFT/TDA Excitation Energies
 ---------------------------------------------------

 Excited state   1: excitation energy (eV) =    2.2428
 Total energy for state  1:                  -286.70391959 au
    <S**2>     :  0.8992
    Trans. Mom.: -0.0563 X  -0.0767 Y  -0.0336 Z
    Strength   :     0.0005596317
    S(  1) --> V(  1) amplitude =  0.9796 alpha

 Excited state   2: excitation energy (eV) =    3.2906
 Total energy for state  2:                  -286.66541237 au
    <S**2>     :  2.7312
    Trans. Mom.:  0.0059 X   0.0063 Y  -0.0260 Z
    Strength   :     0.0000605305
    D( 24) --> V(  1) amplitude = -0.6901 alpha
    D( 24) --> V(  1) amplitude =  0.6635 beta

 Excited state   3: excitation energy (eV) =    3.3989
 Total energy for state  3:                  -286.66143150 au
    <S**2>     :  0.9503
    Trans. Mom.:  0.0018 X  -0.0110 Y   0.0023 Z
    Strength   :     0.0000107311
    D( 23) --> V(  1) amplitude = -0.2118 alpha
    D( 21) --> S(  1) amplitude =  0.2643 beta
    D( 23) --> V(  1) amplitude =  0.1638 beta
    D( 24) --> S(  1) amplitude =  0.9033 beta

 Excited state   4: excitation energy (eV) =    3.8003
 Total energy for state  4:                  -286.64668185 au
    <S**2>     :  2.3723
    Trans. Mom.:  0.0180 X   0.0307 Y   0.0052 Z
    Strength   :     0.0001203911
    D( 22) --> V(  1) amplitude =  0.1600 alpha
    D( 23) --> V(  1) amplitude = -0.5205 alpha
    D( 23) --> V(  1) amplitude =  0.7315 beta
    D( 24) --> S(  1) amplitude = -0.2738 beta

 ---------------------------------------------------

                    Orbital Energies (a.u.)
 --------------------------------------------------------------

 Alpha MOs
 -- Occupied --
-14.336 -10.238 -10.237 -10.224 -10.220 -10.218 -10.217  -0.937
 -0.870  -0.786  -0.671  -0.603  -0.578  -0.551  -0.518  -0.503
 -0.463  -0.430  -0.385  -0.361  -0.315  -0.288  -0.272  -0.257
 -0.202

 Beta MOs
 -- Occupied --
-14.336 -10.238 -10.235 -10.223 -10.218 -10.217 -10.209  -0.937
 -0.869  -0.771  -0.661  -0.590  -0.578  -0.545  -0.515  -0.497
 -0.453  -0.423  -0.386  -0.361  -0.312  -0.287  -0.257  -0.252

          Ground-State Mulliken Net Atomic Charges

     Atom                 Charge (a.u.)    Spin (a.u.)
  --------------------------------------------------------
      1 C                    -0.080650       0.065598
      2 C                    -0.189018      -0.010247
      3 C                    -0.190669      -0.010146
      4 C                    -0.046956      -0.207160
      5 C                    -0.139683       0.087273
      6 N                    -0.095606      -0.022992
      7 H                     0.113688      -0.007985
      8 H                     0.142621      -0.000914
      9 H                     0.142383      -0.000853
     10 H                     0.142220       0.084429
     11 H                     0.117277       0.011926
     12 C                    -0.101765       1.057375
     13 H                     0.186157      -0.046303
  --------------------------------------------------------
  Sum of atomic charges =     0.000000

                    Cartesian Multipole Moments
 -----------------------------------------------------------------
    Charge (ESU x 10^10)
                 0.0000
    Dipole Moment (Debye)
         X       0.3270      Y       0.4255      Z      -1.5523
       Tot       1.6425
    Quadrupole Moments (Debye-Ang)
        XX     -37.8606     XY      -1.5073     YY     -40.6624
        XZ      -1.4141     YZ       1.3603     ZZ     -41.8502

 Total job time:  239.45s(wall), 198.23s(cpu)
        *  Thank you very much for using Q-Chem.  Have a nice day.  *
