 Q-Chem 5.0, Q-Chem, Inc., Pleasanton, CA (2017)
 Q-Chem 5.0.2 for Intel X86 EM64T Linux

User input:
--------------------------------------------------------------
$molecule
0 2
C        0.7848755629   -0.4822174385   -0.0798482646
C        2.2526821648   -0.7502241617    0.1533838645
C        1.5714196860   -1.7537596532   -0.2914879340
C       -1.7712263058    1.1527702996    0.0157412983
C       -1.1359229008    0.2926919098    1.0641550819
N       -0.0675692106   -0.4077497435    1.0608406024
H        0.4818874335    0.1091611892   -0.9507259987
H        3.1747394959   -0.3180092032    0.5122835730
H        1.4956570306   -2.7907261483   -0.5827359762
H       -2.6988555271    1.6154444477    0.3863710622
H       -1.7107659496    0.2761988387    1.9956366413
C       -1.3829046070    1.4034528303   -1.2084303812
H       -1.0576429443    1.5993756393   -2.2061871774
$end

$rem
method                b3lyp
basis                 6-31g(d)
unrestricted          true
symmetry              off
sym_ignore            true
incdft                false
incfock               0
scf_convergence       6
thresh                14
jobtype               sp
scf_guess             read
scf_algorithm         diis
max_scf_cycles        100
stability_analysis    true
max_cis_cycles        100
cis_n_roots           4
$end

--------------------------------------------------------------

             Standard Nuclear Orientation (Angstroms)
    I     Atom           X                Y                Z
 ----------------------------------------------------------------
    1      C       0.7848755629    -0.4822174385    -0.0798482646
    2      C       2.2526821648    -0.7502241617     0.1533838645
    3      C       1.5714196860    -1.7537596532    -0.2914879340
    4      C      -1.7712263058     1.1527702996     0.0157412983
    5      C      -1.1359229008     0.2926919098     1.0641550819
    6      N      -0.0675692106    -0.4077497435     1.0608406024
    7      H       0.4818874335     0.1091611892    -0.9507259987
    8      H       3.1747394959    -0.3180092032     0.5122835730
    9      H       1.4956570306    -2.7907261483    -0.5827359762
   10      H      -2.6988555271     1.6154444477     0.3863710622
   11      H      -1.7107659496     0.2761988387     1.9956366413
   12      C      -1.3829046070     1.4034528303    -1.2084303812
   13      H      -1.0576429443     1.5993756393    -2.2061871774
 ----------------------------------------------------------------

    2    -286.7610410225      4.68E-10 Convergence criterion met
 Total energy in the final basis set = -286.76104102

         TDDFT/TDA Excitation Energies
 ---------------------------------------------------

 Excited state   1: excitation energy (eV) =    2.3244
 Total energy for state  1:                  -286.67561953 au
    <S**2>     :  0.9179
    Trans. Mom.: -0.0376 X  -0.0484 Y  -0.0218 Z
    Strength   :     0.0002412809
    S(  1) --> V(  1) amplitude =  0.9788 alpha

 Excited state   2: excitation energy (eV) =    3.3335
 Total energy for state  2:                  -286.63853711 au
    <S**2>     :  2.7308
    Trans. Mom.: -0.0115 X   0.0022 Y   0.0146 Z
    Strength   :     0.0000285883
    D( 24) --> V(  1) amplitude =  0.6932 alpha
    D( 24) --> V(  1) amplitude = -0.6627 beta

 Excited state   3: excitation energy (eV) =    3.4933
 Total energy for state  3:                  -286.63266470 au
    <S**2>     :  1.0208
    Trans. Mom.:  0.0063 X  -0.0018 Y   0.0047 Z
    Strength   :     0.0000055940
    D( 23) --> V(  1) amplitude = -0.2589 alpha
    D( 21) --> S(  1) amplitude =  0.2664 beta
    D( 23) --> V(  1) amplitude =  0.2041 beta
    D( 24) --> S(  1) amplitude =  0.8819 beta

 Excited state   4: excitation energy (eV) =    3.8677
 Total energy for state  4:                  -286.61890413 au
    <S**2>     :  2.2954
    Trans. Mom.:  0.0159 X   0.0262 Y   0.0056 Z
    Strength   :     0.0000920075
    D( 23) --> V(  1) amplitude = -0.5200 alpha
    D( 23) --> V(  1) amplitude =  0.7251 beta
    D( 24) --> S(  1) amplitude = -0.3281 beta

 ---------------------------------------------------

                    Orbital Energies (a.u.)
 --------------------------------------------------------------

 Alpha MOs
 -- Occupied --
-14.319 -10.227 -10.225 -10.210 -10.208 -10.207 -10.207  -0.924
 -0.857  -0.772  -0.659  -0.593  -0.570  -0.542  -0.508  -0.492
 -0.452  -0.419  -0.372  -0.350  -0.302  -0.276  -0.259  -0.244
 -0.189

 Beta MOs
 -- Occupied --
-14.320 -10.226 -10.223 -10.209 -10.208 -10.207 -10.195  -0.923
 -0.856  -0.757  -0.649  -0.579  -0.570  -0.536  -0.505  -0.486
 -0.441  -0.413  -0.373  -0.350  -0.299  -0.275  -0.243  -0.238

          Ground-State Mulliken Net Atomic Charges

     Atom                 Charge (a.u.)    Spin (a.u.)
  --------------------------------------------------------
      1 C                    -0.015313       0.030425
      2 C                    -0.117794       0.001659
      3 C                    -0.118079       0.001106
      4 C                    -0.181336      -0.204017
      5 C                     0.039177       0.079525
      6 N                    -0.350555      -0.022494
      7 H                     0.135580      -0.009159
      8 H                     0.152659      -0.000986
      9 H                     0.152589      -0.000930
     10 H                     0.142469       0.086226
     11 H                     0.129539       0.013164
     12 C                    -0.163874       1.079365
     13 H                     0.194938      -0.053883
  --------------------------------------------------------
  Sum of atomic charges =    -0.000000

                    Cartesian Multipole Moments
 -----------------------------------------------------------------
    Charge (ESU x 10^10)
                 0.0000
    Dipole Moment (Debye)
         X       0.3286      Y       0.4253      Z      -1.5583
       Tot       1.6484
    Quadrupole Moments (Debye-Ang)
        XX     -36.4949     XY      -1.6238     YY     -38.9690
        XZ      -1.0398     YZ       0.9151     ZZ     -39.9582

 Total job time:  107.15s(wall), 82.79s(cpu)
        *  Thank you very much for using Q-Chem.  Have a nice day.  *
