 Q-Chem 5.0, Q-Chem, Inc., Pleasanton, CA (2017)
 Q-Chem 5.0.2 for Intel X86 EM64T Linux

User input:
--------------------------------------------------------------
$molecule
0 2
C        0.4626089712   -0.7358276611   -0.1898015025
C        1.9138763224   -0.5068117572   -0.1542609568
C        1.9059120474   -1.7981251474   -0.1467010573
C       -1.6526157571    1.2960540915    0.0835327819
C       -1.2458117703    0.2537268177    1.0877487062
N       -0.2972473702   -0.6070944013    0.9895285086
H       -0.0524924453   -1.0880450298   -1.0858417219
H        2.5595235709    0.3409121928    0.0737927350
H        2.0424273248   -2.8418838773   -0.3388872675
H       -2.5751091271    1.8320024174    0.3147596440
H       -1.8025865445    0.2592810144    2.0322031526
C       -0.9207312344    1.5882413816   -0.9692106382
H       -0.4013800593    1.9539787650   -1.8278659926
$end

$rem
method                b3lyp
basis                 6-31g(d)
unrestricted          true
symmetry              off
sym_ignore            true
incdft                false
incfock               0
scf_convergence       8
thresh                14
jobtype               ts
scf_guess             read
scf_algorithm         diis
max_scf_cycles        100
geom_opt_max_cycles   500
geom_opt_dmax         100
geom_opt_tol_gradient 10
geom_opt_hessian      read
$end

--------------------------------------------------------------

    2    -286.7255654213      9.65E-10 Convergence criterion met
 Total energy in the final basis set = -286.72556542
   14    -286.7287359318      6.11E-09 Convergence criterion met
 Total energy in the final basis set = -286.72873593
   14    -286.7319805188      4.48E-09 Convergence criterion met
 Total energy in the final basis set = -286.73198052
   14    -286.7351971465      3.81E-09 Convergence criterion met
 Total energy in the final basis set = -286.73519715
   14    -286.7383370829      3.71E-09 Convergence criterion met
 Total energy in the final basis set = -286.73833708
   14    -286.7413588511      3.59E-09 Convergence criterion met
 Total energy in the final basis set = -286.74135885
   13    -286.7442166758      9.68E-09 Convergence criterion met
 Total energy in the final basis set = -286.74421668
   13    -286.7468653975      8.85E-09 Convergence criterion met
   10    -286.7610409823      3.60E-09 Convergence criterion met
 Total energy in the final basis set = -286.76104098
    8    -286.7610410070      7.74E-09 Convergence criterion met
 Total energy in the final basis set = -286.76104101
    9    -286.7610410121      7.75E-09 Convergence criterion met
 Total energy in the final basis set = -286.76104101
    9    -286.7610410184      3.49E-09 Convergence criterion met
 Total energy in the final basis set = -286.76104102
    9    -286.7610410194      6.59E-09 Convergence criterion met
 Total energy in the final basis set = -286.76104102
    9    -286.7610410189      6.94E-09 Convergence criterion met
 Total energy in the final basis set = -286.76104102

             Standard Nuclear Orientation (Angstroms)
    I     Atom           X                Y                Z
 ----------------------------------------------------------------
    1      C       0.7848755629    -0.4822174385    -0.0798482646
    2      C       2.2526821648    -0.7502241617     0.1533838645
    3      C       1.5714196860    -1.7537596532    -0.2914879340
    4      C      -1.7712263058     1.1527702996     0.0157412983
    5      C      -1.1359229008     0.2926919098     1.0641550819
    6      N      -0.0675692106    -0.4077497435     1.0608406024
    7      H       0.4818874335     0.1091611892    -0.9507259987
    8      H       3.1747394959    -0.3180092032     0.5122835730
    9      H       1.4956570306    -2.7907261483    -0.5827359762
   10      H      -2.6988555271     1.6154444477     0.3863710622
   11      H      -1.7107659496     0.2761988387     1.9956366413
   12      C      -1.3829046070     1.4034528303    -1.2084303812
   13      H      -1.0576429443     1.5993756393    -2.2061871774
 ----------------------------------------------------------------

    9    -286.7610410225      3.67E-09 Convergence criterion met
 Total energy in the final basis set = -286.76104102
 Final energy is   -286.761041022541
 **  OPTIMIZATION CONVERGED  **

                    Orbital Energies (a.u.)
 --------------------------------------------------------------

 Alpha MOs
 -- Occupied --
-14.319 -10.227 -10.225 -10.210 -10.208 -10.207 -10.207  -0.924
 -0.857  -0.772  -0.659  -0.593  -0.570  -0.542  -0.508  -0.492
 -0.452  -0.419  -0.372  -0.350  -0.302  -0.276  -0.259  -0.244
 -0.189

 Beta MOs
 -- Occupied --
-14.320 -10.226 -10.223 -10.209 -10.208 -10.207 -10.195  -0.923
 -0.856  -0.757  -0.649  -0.579  -0.570  -0.536  -0.505  -0.486
 -0.441  -0.413  -0.373  -0.350  -0.299  -0.275  -0.243  -0.238

          Ground-State Mulliken Net Atomic Charges

     Atom                 Charge (a.u.)    Spin (a.u.)
  --------------------------------------------------------
      1 C                    -0.015313       0.030425
      2 C                    -0.117794       0.001658
      3 C                    -0.118079       0.001106
      4 C                    -0.181336      -0.204017
      5 C                     0.039177       0.079525
      6 N                    -0.350555      -0.022494
      7 H                     0.135580      -0.009159
      8 H                     0.152659      -0.000986
      9 H                     0.152589      -0.000930
     10 H                     0.142469       0.086226
     11 H                     0.129539       0.013164
     12 C                    -0.163874       1.079365
     13 H                     0.194938      -0.053883
  --------------------------------------------------------
  Sum of atomic charges =    -0.000000

                    Cartesian Multipole Moments
 -----------------------------------------------------------------
    Charge (ESU x 10^10)
                -0.0000
    Dipole Moment (Debye)
         X       0.3286      Y       0.4253      Z      -1.5583
       Tot       1.6484
    Quadrupole Moments (Debye-Ang)
        XX     -36.4949     XY      -1.6238     YY     -38.9690
        XZ      -1.0398     YZ       0.9151     ZZ     -39.9582

 Total job time:  940.38s(wall), 1633.28s(cpu)
        *  Thank you very much for using Q-Chem.  Have a nice day.  *
