 Q-Chem 5.0, Q-Chem, Inc., Pleasanton, CA (2017)
 Q-Chem 5.0.2 for Intel X86 EM64T Linux

User input:
--------------------------------------------------------------
$molecule
0 2
C        0.4626089712   -0.7358276611   -0.1898015025
C        1.9138763224   -0.5068117572   -0.1542609568
C        1.9059120474   -1.7981251474   -0.1467010573
C       -1.6526157571    1.2960540915    0.0835327819
C       -1.2458117703    0.2537268177    1.0877487062
N       -0.2972473702   -0.6070944013    0.9895285086
H       -0.0524924453   -1.0880450298   -1.0858417219
H        2.5595235709    0.3409121928    0.0737927350
H        2.0424273248   -2.8418838773   -0.3388872675
H       -2.5751091271    1.8320024174    0.3147596440
H       -1.8025865445    0.2592810144    2.0322031526
C       -0.9207312344    1.5882413816   -0.9692106382
H       -0.4013800593    1.9539787650   -1.8278659926
$end

$rem
method                b3lyp
basis                 6-31g(d)
unrestricted          true
symmetry              off
sym_ignore            true
incdft                false
incfock               0
scf_convergence       8
thresh                14
jobtype               sp
scf_guess             core
scf_guess_mix         5
scf_algorithm         diis
max_scf_cycles        100
$end

--------------------------------------------------------------

             Standard Nuclear Orientation (Angstroms)
    I     Atom           X                Y                Z
 ----------------------------------------------------------------
    1      C       0.4626089712    -0.7358276611    -0.1898015025
    2      C       1.9138763224    -0.5068117572    -0.1542609568
    3      C       1.9059120474    -1.7981251474    -0.1467010573
    4      C      -1.6526157571     1.2960540915     0.0835327819
    5      C      -1.2458117703     0.2537268177     1.0877487062
    6      N      -0.2972473702    -0.6070944013     0.9895285086
    7      H      -0.0524924453    -1.0880450298    -1.0858417219
    8      H       2.5595235709     0.3409121928     0.0737927350
    9      H       2.0424273248    -2.8418838773    -0.3388872675
   10      H      -2.5751091271     1.8320024174     0.3147596440
   11      H      -1.8025865445     0.2592810144     2.0322031526
   12      C      -0.9207312344     1.5882413816    -0.9692106382
   13      H      -0.4013800593     1.9539787650    -1.8278659926
 ----------------------------------------------------------------

   24    -286.7255654212      4.75E-09 Convergence criterion met
 Total energy in the final basis set = -286.72556542

                    Orbital Energies (a.u.)
 --------------------------------------------------------------

 Alpha MOs
 -- Occupied --
-14.324 -10.232 -10.229 -10.211 -10.211 -10.208 -10.204  -0.920
 -0.831  -0.771  -0.663  -0.595  -0.571  -0.536  -0.491  -0.487
 -0.459  -0.429  -0.407  -0.334  -0.293  -0.278  -0.263  -0.223
 -0.175

 Beta MOs
 -- Occupied --
-14.325 -10.230 -10.229 -10.211 -10.210 -10.203 -10.197  -0.921
 -0.830  -0.756  -0.654  -0.580  -0.568  -0.530  -0.489  -0.481
 -0.450  -0.425  -0.405  -0.333  -0.291  -0.277  -0.256  -0.193

          Ground-State Mulliken Net Atomic Charges

     Atom                 Charge (a.u.)    Spin (a.u.)
  --------------------------------------------------------
      1 C                    -0.046127      -0.030905
      2 C                    -0.141309      -0.006344
      3 C                    -0.142231       0.085780
      4 C                    -0.194332      -0.199827
      5 C                     0.052294       0.077276
      6 N                    -0.339358      -0.036831
      7 H                     0.163328       0.005213
      8 H                     0.138834       0.004734
      9 H                     0.181468      -0.003257
     10 H                     0.145848       0.079186
     11 H                     0.138502       0.010591
     12 C                    -0.147992       1.064780
     13 H                     0.191075      -0.050396
  --------------------------------------------------------
  Sum of atomic charges =    -0.000000

                    Cartesian Multipole Moments
 -----------------------------------------------------------------
    Charge (ESU x 10^10)
                -0.0000
    Dipole Moment (Debye)
         X      -0.1450      Y       0.7230      Z      -1.4798
       Tot       1.6534
    Quadrupole Moments (Debye-Ang)
        XX     -38.2976     XY      -1.8858     YY     -37.1125
        XZ      -2.1852     YZ       1.4194     ZZ     -40.7127

 Total job time:  37.77s(wall), 60.35s(cpu)
        *  Thank you very much for using Q-Chem.  Have a nice day.  *
