 Q-Chem 5.0, Q-Chem, Inc., Pleasanton, CA (2017)
 Q-Chem 5.0.2 for Intel X86 EM64T Linux

User input:
--------------------------------------------------------------
$molecule
0 2
C        0.4626089712   -0.7358276611   -0.1898015025
C        1.9138763224   -0.5068117572   -0.1542609568
C        1.9059120474   -1.7981251474   -0.1467010573
C       -1.6526157571    1.2960540915    0.0835327819
C       -1.2458117703    0.2537268177    1.0877487062
N       -0.2972473702   -0.6070944013    0.9895285086
H       -0.0524924453   -1.0880450298   -1.0858417219
H        2.5595235709    0.3409121928    0.0737927350
H        2.0424273248   -2.8418838773   -0.3388872675
H       -2.5751091271    1.8320024174    0.3147596440
H       -1.8025865445    0.2592810144    2.0322031526
C       -0.9207312344    1.5882413816   -0.9692106382
H       -0.4013800593    1.9539787650   -1.8278659926
$end

$rem
method                b3lyp
basis                 6-31g(d)
unrestricted          true
symmetry              off
sym_ignore            true
incdft                false
incfock               0
scf_convergence       8
thresh                14
jobtype               freq
scf_guess             read
scf_algorithm         diis
max_scf_cycles        100
$end

--------------------------------------------------------------

             Standard Nuclear Orientation (Angstroms)
    I     Atom           X                Y                Z
 ----------------------------------------------------------------
    1      C       0.4626089712    -0.7358276611    -0.1898015025
    2      C       1.9138763224    -0.5068117572    -0.1542609568
    3      C       1.9059120474    -1.7981251474    -0.1467010573
    4      C      -1.6526157571     1.2960540915     0.0835327819
    5      C      -1.2458117703     0.2537268177     1.0877487062
    6      N      -0.2972473702    -0.6070944013     0.9895285086
    7      H      -0.0524924453    -1.0880450298    -1.0858417219
    8      H       2.5595235709     0.3409121928     0.0737927350
    9      H       2.0424273248    -2.8418838773    -0.3388872675
   10      H      -2.5751091271     1.8320024174     0.3147596440
   11      H      -1.8025865445     0.2592810144     2.0322031526
   12      C      -0.9207312344     1.5882413816    -0.9692106382
   13      H      -0.4013800593     1.9539787650    -1.8278659926
 ----------------------------------------------------------------

    2    -286.7255654214      2.65E-09 Convergence criterion met
 Total energy in the final basis set = -286.72556542

                    Orbital Energies (a.u.)
 --------------------------------------------------------------

 Alpha MOs
 -- Occupied --
-14.324 -10.232 -10.229 -10.211 -10.211 -10.208 -10.204  -0.920
 -0.831  -0.771  -0.663  -0.595  -0.571  -0.536  -0.491  -0.487
 -0.459  -0.429  -0.407  -0.334  -0.293  -0.278  -0.263  -0.223
 -0.175

 Beta MOs
 -- Occupied --
-14.325 -10.230 -10.229 -10.211 -10.210 -10.203 -10.197  -0.921
 -0.830  -0.756  -0.654  -0.580  -0.568  -0.530  -0.489  -0.481
 -0.450  -0.425  -0.405  -0.333  -0.291  -0.277  -0.256  -0.193

          Ground-State Mulliken Net Atomic Charges

     Atom                 Charge (a.u.)    Spin (a.u.)
  --------------------------------------------------------
      1 C                    -0.046127      -0.030899
      2 C                    -0.141309      -0.006330
      3 C                    -0.142231       0.085759
      4 C                    -0.194332      -0.199828
      5 C                     0.052294       0.077281
      6 N                    -0.339358      -0.036835
      7 H                     0.163328       0.005213
      8 H                     0.138834       0.004733
      9 H                     0.181468      -0.003255
     10 H                     0.145848       0.079186
     11 H                     0.138502       0.010590
     12 C                    -0.147991       1.064781
     13 H                     0.191075      -0.050396
  --------------------------------------------------------
  Sum of atomic charges =    -0.000000

                    Cartesian Multipole Moments
 -----------------------------------------------------------------
    Charge (ESU x 10^10)
                 0.0000
    Dipole Moment (Debye)
         X      -0.1450      Y       0.7230      Z      -1.4798
       Tot       1.6534
    Quadrupole Moments (Debye-Ang)
        XX     -38.2976     XY      -1.8858     YY     -37.1125
        XZ      -2.1852     YZ       1.4194     ZZ     -40.7127

 Frequency:      -695.58                -482.37                  74.11
 Force Cnst:      0.3581                 0.4592                 0.0115
 Red. Mass:       1.2560                 3.3494                 3.5524
 IR Intens:       43.002                 34.858                  0.432
 Frequency:       136.26                 176.84                 289.55
 Force Cnst:      0.0267                 0.0621                 0.1499
 Red. Mass:       2.4393                 3.3724                 3.0347
 IR Intens:        4.125                  1.621                  3.407
 Frequency:       351.85                 373.33                 514.50
 Force Cnst:      0.2072                 0.1691                 0.3223
 Red. Mass:       2.8405                 2.0588                 2.0667
 IR Intens:        3.971                 10.456                 19.761
 Frequency:       543.29                 653.31                 691.05
 Force Cnst:      0.4843                 0.3192                 0.3863
 Red. Mass:       2.7849                 1.2695                 1.3731
 IR Intens:        2.558                 39.245                 32.702
 Frequency:       745.45                 803.02                 821.75
 Force Cnst:      0.5545                 1.3531                 0.6415
 Red. Mass:       1.6937                 3.5614                 1.6123
 IR Intens:       16.389                 11.475                  6.270
 Frequency:       844.01                 891.47                 956.47
 Force Cnst:      0.6200                 1.5565                 0.8520
 Red. Mass:       1.4773                 3.3242                 1.5806
 IR Intens:       25.587                  4.988                  6.385
 Frequency:      1019.93                1119.65                1234.45
 Force Cnst:      2.0902                 1.0373                 1.5090
 Red. Mass:       3.4102                 1.4043                 1.6807
 IR Intens:       48.794                 10.174                 42.511
 Frequency:      1242.95                1352.64                1416.75
 Force Cnst:      1.3333                 1.3730                 1.5147
 Red. Mass:       1.4648                 1.2736                 1.2808
 IR Intens:        5.161                  7.628                  7.916
 Frequency:      1584.12                1673.73                1735.28
 Force Cnst:     10.8414                11.7936                 9.3004
 Red. Mass:       7.3326                 7.1453                 5.2422
 IR Intens:       31.449                  4.831                 85.595
 Frequency:      3088.13                3107.75                3120.12
 Force Cnst:      6.0939                 6.1845                 6.2380
 Red. Mass:       1.0846                 1.0868                 1.0876
 IR Intens:       25.544                 69.098                  6.597
 Frequency:      3150.93                3426.75                3446.62
 Force Cnst:      6.4456                 7.7804                 7.8071
 Red. Mass:       1.1019                 1.1246                 1.1155
 IR Intens:       47.356                 62.667                 31.341

 STANDARD THERMODYNAMIC QUANTITIES AT   298.15 K  AND     1.00 ATM

   This Molecule has  2 Imaginary Frequencies
   Zero point vibrational energy:       58.021 kcal/mol

   Atom    1 Element C  Has Mass   12.00000
   Atom    2 Element C  Has Mass   12.00000
   Atom    3 Element C  Has Mass   12.00000
   Atom    4 Element C  Has Mass   12.00000
   Atom    5 Element C  Has Mass   12.00000
   Atom    6 Element N  Has Mass   14.00307
   Atom    7 Element H  Has Mass    1.00783
   Atom    8 Element H  Has Mass    1.00783
   Atom    9 Element H  Has Mass    1.00783
   Atom   10 Element H  Has Mass    1.00783
   Atom   11 Element H  Has Mass    1.00783
   Atom   12 Element C  Has Mass   12.00000
   Atom   13 Element H  Has Mass    1.00783
   Molecular Mass:    92.050050 amu
   Principal axes and moments of inertia in amu*Bohr^2:
                             1           2           3
    Eigenvalues --      285.58232   980.80625  1183.35992
          X               0.78630    -0.34566     0.51210
          Y              -0.61653    -0.49303     0.61385
          Z              -0.04030     0.79839     0.60079
   Rotational Symmetry Number is   1
   The Molecule is an Asymmetric Top
   Translational Enthalpy:        0.889 kcal/mol
   Rotational Enthalpy:           0.889 kcal/mol
   Vibrational Enthalpy:         60.755 kcal/mol
   gas constant (RT):             0.592 kcal/mol
   Translational Entropy:        39.471  cal/mol.K
   Rotational Entropy:           27.296  cal/mol.K
   Vibrational Entropy:          16.176  cal/mol.K

   Total Enthalpy:               63.125 kcal/mol
   Total Entropy:                82.944  cal/mol.K

 Total job time:  266.51s(wall), 241.52s(cpu)
        *  Thank you very much for using Q-Chem.  Have a nice day.  *
