 Q-Chem 5.0, Q-Chem, Inc., Pleasanton, CA (2017)
 Q-Chem 5.0.2 for Intel X86 EM64T Linux

User input:
--------------------------------------------------------------
$molecule
0 2
C        0.7848755629   -0.4822174385   -0.0798482646
C        2.2526821648   -0.7502241617    0.1533838645
C        1.5714196860   -1.7537596532   -0.2914879340
C       -1.7712263058    1.1527702996    0.0157412983
C       -1.1359229008    0.2926919098    1.0641550819
N       -0.0675692106   -0.4077497435    1.0608406024
H        0.4818874335    0.1091611892   -0.9507259987
H        3.1747394959   -0.3180092032    0.5122835730
H        1.4956570306   -2.7907261483   -0.5827359762
H       -2.6988555271    1.6154444477    0.3863710622
H       -1.7107659496    0.2761988387    1.9956366413
C       -1.3829046070    1.4034528303   -1.2084303812
H       -1.0576429443    1.5993756393   -2.2061871774
$end

$rem
method                b3lyp
basis                 6-31+g(d,p)
unrestricted          true
symmetry              off
sym_ignore            true
incdft                false
incfock               0
scf_convergence       8
thresh                14
jobtype               freq
scf_guess             read
scf_algorithm         diis
max_scf_cycles        100
$end

--------------------------------------------------------------

             Standard Nuclear Orientation (Angstroms)
    I     Atom           X                Y                Z
 ----------------------------------------------------------------
    1      C       0.7848755629    -0.4822174385    -0.0798482646
    2      C       2.2526821648    -0.7502241617     0.1533838645
    3      C       1.5714196860    -1.7537596532    -0.2914879340
    4      C      -1.7712263058     1.1527702996     0.0157412983
    5      C      -1.1359229008     0.2926919098     1.0641550819
    6      N      -0.0675692106    -0.4077497435     1.0608406024
    7      H       0.4818874335     0.1091611892    -0.9507259987
    8      H       3.1747394959    -0.3180092032     0.5122835730
    9      H       1.4956570306    -2.7907261483    -0.5827359762
   10      H      -2.6988555271     1.6154444477     0.3863710622
   11      H      -1.7107659496     0.2761988387     1.9956366413
   12      C      -1.3829046070     1.4034528303    -1.2084303812
   13      H      -1.0576429443     1.5993756393    -2.2061871774
 ----------------------------------------------------------------

    2    -286.7863396744      1.87E-09 Convergence criterion met
 Total energy in the final basis set = -286.78633967

                    Orbital Energies (a.u.)
 --------------------------------------------------------------

 Alpha MOs
 -- Occupied --
-14.336 -10.238 -10.237 -10.224 -10.220 -10.218 -10.217  -0.937
 -0.870  -0.786  -0.671  -0.603  -0.578  -0.551  -0.518  -0.503
 -0.463  -0.430  -0.385  -0.361  -0.315  -0.288  -0.272  -0.257
 -0.202

 Beta MOs
 -- Occupied --
-14.336 -10.238 -10.235 -10.223 -10.218 -10.217 -10.209  -0.937
 -0.869  -0.771  -0.661  -0.590  -0.578  -0.545  -0.515  -0.497
 -0.453  -0.423  -0.386  -0.361  -0.312  -0.287  -0.257  -0.252

          Ground-State Mulliken Net Atomic Charges

     Atom                 Charge (a.u.)    Spin (a.u.)
  --------------------------------------------------------
      1 C                    -0.080650       0.065600
      2 C                    -0.189018      -0.010249
      3 C                    -0.190669      -0.010145
      4 C                    -0.046956      -0.207157
      5 C                    -0.139683       0.087277
      6 N                    -0.095606      -0.022996
      7 H                     0.113688      -0.007985
      8 H                     0.142621      -0.000914
      9 H                     0.142383      -0.000853
     10 H                     0.142220       0.084428
     11 H                     0.117277       0.011925
     12 C                    -0.101765       1.057372
     13 H                     0.186157      -0.046303
  --------------------------------------------------------
  Sum of atomic charges =     0.000000

                    Cartesian Multipole Moments
 -----------------------------------------------------------------
    Charge (ESU x 10^10)
                 0.0000
    Dipole Moment (Debye)
         X       0.3270      Y       0.4255      Z      -1.5523
       Tot       1.6425
    Quadrupole Moments (Debye-Ang)
        XX     -37.8606     XY      -1.5073     YY     -40.6624
        XZ      -1.4141     YZ       1.3603     ZZ     -41.8502

 Frequency:      -701.85                  26.46                  95.70
 Force Cnst:      0.3641                 0.0011                 0.0128
 Red. Mass:       1.2545                 2.6931                 2.3795
 IR Intens:       78.687                  0.419                  0.866
 Frequency:       168.77                 301.67                 337.07
 Force Cnst:      0.0748                 0.1356                 0.2792
 Red. Mass:       4.4572                 2.5298                 4.1702
 IR Intens:        0.420                  1.851                  5.823
 Frequency:       446.44                 551.13                 637.83
 Force Cnst:      0.4138                 0.6611                 0.3187
 Red. Mass:       3.5237                 3.6939                 1.3295
 IR Intens:       11.421                  0.493                 60.286
 Frequency:       646.99                 743.73                 769.31
 Force Cnst:      0.3262                 0.5085                 1.9397
 Red. Mass:       1.3225                 1.5604                 5.5626
 IR Intens:       41.584                 12.974                 16.040
 Frequency:       832.87                 848.56                 889.37
 Force Cnst:      0.9424                 0.6257                 2.4484
 Red. Mass:       2.3058                 1.4749                 5.2536
 IR Intens:       23.777                  0.242                  0.764
 Frequency:       941.54                 962.14                1012.80
 Force Cnst:      0.6127                 0.7659                 0.9339
 Red. Mass:       1.1731                 1.4043                 1.5453
 IR Intens:        2.996                  1.581                 30.869
 Frequency:      1033.31                1056.62                1150.31
 Force Cnst:      2.8013                 0.8926                 4.0441
 Red. Mass:       4.4529                 1.3570                 5.1874
 IR Intens:       58.298                  1.411                  3.113
 Frequency:      1275.40                1368.28                1427.20
 Force Cnst:      1.0931                 1.2761                 1.4706
 Red. Mass:       1.1406                 1.1569                 1.2254
 IR Intens:       22.895                 32.080                  4.248
 Frequency:      1621.13                1700.47                1748.39
 Force Cnst:     11.2728                12.2711                 9.4266
 Red. Mass:       7.2802                 7.2027                 5.2340
 IR Intens:       18.370                  5.577                 74.295
 Frequency:      2993.11                3042.47                3090.70
 Force Cnst:      5.7026                 5.9024                 6.1240
 Red. Mass:       1.0804                 1.0822                 1.0881
 IR Intens:       25.653                 57.324                 50.659
 Frequency:      3257.51                3304.80                3446.63
 Force Cnst:      6.7796                 7.3926                 7.8233
 Red. Mass:       1.0844                 1.1488                 1.1178
 IR Intens:        0.483                  0.099                 46.209

 STANDARD THERMODYNAMIC QUANTITIES AT   298.15 K  AND     1.00 ATM

   This Molecule has  1 Imaginary Frequencies
   Zero point vibrational energy:       59.654 kcal/mol

   Atom    1 Element C  Has Mass   12.00000
   Atom    2 Element C  Has Mass   12.00000
   Atom    3 Element C  Has Mass   12.00000
   Atom    4 Element C  Has Mass   12.00000
   Atom    5 Element C  Has Mass   12.00000
   Atom    6 Element N  Has Mass   14.00307
   Atom    7 Element H  Has Mass    1.00783
   Atom    8 Element H  Has Mass    1.00783
   Atom    9 Element H  Has Mass    1.00783
   Atom   10 Element H  Has Mass    1.00783
   Atom   11 Element H  Has Mass    1.00783
   Atom   12 Element C  Has Mass   12.00000
   Atom   13 Element H  Has Mass    1.00783
   Molecular Mass:    92.050050 amu
   Principal axes and moments of inertia in amu*Bohr^2:
                             1           2           3
    Eigenvalues --      276.50734  1055.81580  1224.35546
          X               0.82513    -0.21737     0.52146
          Y              -0.56322    -0.24423     0.78939
          Z               0.04423     0.94504     0.32394
   Rotational Symmetry Number is   1
   The Molecule is an Asymmetric Top
   Translational Enthalpy:        0.889 kcal/mol
   Rotational Enthalpy:           0.889 kcal/mol
   Vibrational Enthalpy:         62.403 kcal/mol
   gas constant (RT):             0.592 kcal/mol
   Translational Entropy:        39.471  cal/mol.K
   Rotational Entropy:           27.371  cal/mol.K
   Vibrational Entropy:          18.411  cal/mol.K

   Total Enthalpy:               64.773 kcal/mol
   Total Entropy:                85.253  cal/mol.K

 Total job time:  531.78s(wall), 490.32s(cpu)
        *  Thank you very much for using Q-Chem.  Have a nice day.  *
