 Q-Chem 5.0, Q-Chem, Inc., Pleasanton, CA (2017)
 Q-Chem 5.0.2 for Intel X86 EM64T Linux

User input:
--------------------------------------------------------------
$molecule
0 2
C        0.7848755629   -0.4822174385   -0.0798482646
C        2.2526821648   -0.7502241617    0.1533838645
C        1.5714196860   -1.7537596532   -0.2914879340
C       -1.7712263058    1.1527702996    0.0157412983
C       -1.1359229008    0.2926919098    1.0641550819
N       -0.0675692106   -0.4077497435    1.0608406024
H        0.4818874335    0.1091611892   -0.9507259987
H        3.1747394959   -0.3180092032    0.5122835730
H        1.4956570306   -2.7907261483   -0.5827359762
H       -2.6988555271    1.6154444477    0.3863710622
H       -1.7107659496    0.2761988387    1.9956366413
C       -1.3829046070    1.4034528303   -1.2084303812
H       -1.0576429443    1.5993756393   -2.2061871774
$end

$rem
method                b3lyp
basis                 6-31+g(d,p)
unrestricted          true
symmetry              off
sym_ignore            true
incdft                false
incfock               0
scf_convergence       8
thresh                14
jobtype               ts
scf_guess             read
scf_algorithm         diis
max_scf_cycles        100
geom_opt_max_cycles   500
geom_opt_dmax         100
geom_opt_tol_gradient 10
geom_opt_hessian      read
$end

--------------------------------------------------------------

    2    -286.7863396744      5.56E-10 Convergence criterion met
 Total energy in the final basis set = -286.78633967
   12    -286.7863650083      5.63E-09 Convergence criterion met
 Total energy in the final basis set = -286.78636501
   11    -286.7863655982      7.70E-09 Convergence criterion met
 Total energy in the final basis set = -286.78636560

             Standard Nuclear Orientation (Angstroms)
    I     Atom           X                Y                Z
 ----------------------------------------------------------------
    1      C       0.7883701540    -0.4763199672    -0.0796828912
    2      C       2.2557055647    -0.7521665866     0.1544128751
    3      C       1.5695751584    -1.7516037179    -0.2969553767
    4      C      -1.7720064546     1.1504793230     0.0163751215
    5      C      -1.1364407714     0.2934674644     1.0677901296
    6      N      -0.0641254742    -0.4040718053     1.0604232432
    7      H       0.4875204164     0.1209665363    -0.9456809340
    8      H       3.1759803128    -0.3245410482     0.5205364612
    9      H       1.4850718100    -2.7865230729    -0.5896582651
   10      H      -2.6990057884     1.6150434468     0.3836609895
   11      H      -1.7088182741     0.2748609771     1.9992235212
   12      C      -1.3865648296     1.3988285512    -1.2114259291
   13      H      -1.0588878955     1.5879887054    -2.2100225538
 ----------------------------------------------------------------

    8    -286.7863656009      2.41E-09 Convergence criterion met
 Total energy in the final basis set = -286.78636560
 Final energy is   -286.786365600925
 **  OPTIMIZATION CONVERGED  **

                    Orbital Energies (a.u.)
 --------------------------------------------------------------

 Alpha MOs
 -- Occupied --
-14.336 -10.238 -10.237 -10.224 -10.220 -10.219 -10.218  -0.937
 -0.869  -0.785  -0.671  -0.603  -0.578  -0.551  -0.518  -0.503
 -0.463  -0.430  -0.385  -0.362  -0.314  -0.288  -0.272  -0.257
 -0.202

 Beta MOs
 -- Occupied --
-14.336 -10.238 -10.235 -10.223 -10.219 -10.218 -10.209  -0.937
 -0.868  -0.770  -0.661  -0.590  -0.578  -0.545  -0.515  -0.497
 -0.453  -0.423  -0.385  -0.361  -0.311  -0.287  -0.257  -0.251

          Ground-State Mulliken Net Atomic Charges

     Atom                 Charge (a.u.)    Spin (a.u.)
  --------------------------------------------------------
      1 C                    -0.080546       0.065772
      2 C                    -0.188714      -0.010368
      3 C                    -0.191107      -0.010235
      4 C                    -0.049801      -0.207171
      5 C                    -0.139235       0.087436
      6 N                    -0.095749      -0.023679
      7 H                     0.113495      -0.007922
      8 H                     0.142760      -0.000933
      9 H                     0.142424      -0.000843
     10 H                     0.142370       0.083618
     11 H                     0.118035       0.011723
     12 C                    -0.100172       1.058921
     13 H                     0.186239      -0.046319
  --------------------------------------------------------
  Sum of atomic charges =    -0.000000

                    Cartesian Multipole Moments
 -----------------------------------------------------------------
    Charge (ESU x 10^10)
                 0.0000
    Dipole Moment (Debye)
         X       0.3232      Y       0.4117      Z      -1.5364
       Tot       1.6232
    Quadrupole Moments (Debye-Ang)
        XX     -37.8816     XY      -1.4819     YY     -40.6989
        XZ      -1.4214     YZ       1.3810     ZZ     -41.8253

 Total job time:  94.72s(wall), 217.03s(cpu)
        *  Thank you very much for using Q-Chem.  Have a nice day.  *
