 Q-Chem 5.0, Q-Chem, Inc., Pleasanton, CA (2017)
 Q-Chem 5.0.2 for Intel X86 EM64T Linux

User input:
--------------------------------------------------------------
$molecule
0 2
C        0.7883701540   -0.4763199672   -0.0796828912
C        2.2557055647   -0.7521665866    0.1544128751
C        1.5695751584   -1.7516037179   -0.2969553767
C       -1.7720064546    1.1504793230    0.0163751215
C       -1.1364407714    0.2934674644    1.0677901296
N       -0.0641254742   -0.4040718053    1.0604232432
H        0.4875204164    0.1209665363   -0.9456809340
H        3.1759803128   -0.3245410482    0.5205364612
H        1.4850718100   -2.7865230729   -0.5896582651
H       -2.6990057884    1.6150434468    0.3836609895
H       -1.7088182741    0.2748609771    1.9992235212
C       -1.3865648296    1.3988285512   -1.2114259291
H       -1.0588878955    1.5879887054   -2.2100225538
$end

$rem
method                b3lyp
basis                 6-31+g(d,p)
unrestricted          true
symmetry              off
sym_ignore            true
incdft                false
incfock               0
scf_convergence       8
thresh                14
jobtype               freq
scf_guess             read
scf_algorithm         diis
max_scf_cycles        100
$end

--------------------------------------------------------------

             Standard Nuclear Orientation (Angstroms)
    I     Atom           X                Y                Z
 ----------------------------------------------------------------
    1      C       0.7883701540    -0.4763199672    -0.0796828912
    2      C       2.2557055647    -0.7521665866     0.1544128751
    3      C       1.5695751584    -1.7516037179    -0.2969553767
    4      C      -1.7720064546     1.1504793230     0.0163751215
    5      C      -1.1364407714     0.2934674644     1.0677901296
    6      N      -0.0641254742    -0.4040718053     1.0604232432
    7      H       0.4875204164     0.1209665363    -0.9456809340
    8      H       3.1759803128    -0.3245410482     0.5205364612
    9      H       1.4850718100    -2.7865230729    -0.5896582651
   10      H      -2.6990057884     1.6150434468     0.3836609895
   11      H      -1.7088182741     0.2748609771     1.9992235212
   12      C      -1.3865648296     1.3988285512    -1.2114259291
   13      H      -1.0588878955     1.5879887054    -2.2100225538
 ----------------------------------------------------------------

    2    -286.7863656010      2.08E-10 Convergence criterion met
 Total energy in the final basis set = -286.78636560

                    Orbital Energies (a.u.)
 --------------------------------------------------------------

 Alpha MOs
 -- Occupied --
-14.336 -10.238 -10.237 -10.224 -10.220 -10.219 -10.218  -0.937
 -0.869  -0.785  -0.671  -0.603  -0.578  -0.551  -0.518  -0.503
 -0.463  -0.430  -0.385  -0.362  -0.314  -0.288  -0.272  -0.257
 -0.202

 Beta MOs
 -- Occupied --
-14.336 -10.238 -10.235 -10.223 -10.219 -10.218 -10.209  -0.937
 -0.868  -0.770  -0.661  -0.590  -0.578  -0.545  -0.515  -0.497
 -0.453  -0.423  -0.385  -0.361  -0.311  -0.287  -0.257  -0.251

          Ground-State Mulliken Net Atomic Charges

     Atom                 Charge (a.u.)    Spin (a.u.)
  --------------------------------------------------------
      1 C                    -0.080546       0.065772
      2 C                    -0.188714      -0.010368
      3 C                    -0.191107      -0.010235
      4 C                    -0.049801      -0.207172
      5 C                    -0.139235       0.087436
      6 N                    -0.095749      -0.023679
      7 H                     0.113495      -0.007922
      8 H                     0.142760      -0.000933
      9 H                     0.142424      -0.000843
     10 H                     0.142370       0.083618
     11 H                     0.118035       0.011722
     12 C                    -0.100172       1.058922
     13 H                     0.186238      -0.046319
  --------------------------------------------------------
  Sum of atomic charges =     0.000000

                    Cartesian Multipole Moments
 -----------------------------------------------------------------
    Charge (ESU x 10^10)
                 0.0000
    Dipole Moment (Debye)
         X       0.3232      Y       0.4117      Z      -1.5364
       Tot       1.6232
    Quadrupole Moments (Debye-Ang)
        XX     -37.8816     XY      -1.4819     YY     -40.6989
        XZ      -1.4214     YZ       1.3810     ZZ     -41.8253

 Frequency:      -699.97                  43.40                 101.16
 Force Cnst:      0.3620                 0.0030                 0.0140
 Red. Mass:       1.2540                 2.6881                 2.3203
 IR Intens:       79.119                  0.462                  0.803
 Frequency:       170.02                 303.97                 337.93
 Force Cnst:      0.0759                 0.1368                 0.2770
 Red. Mass:       4.4562                 2.5130                 4.1172
 IR Intens:        0.448                  1.963                  6.153
 Frequency:       445.82                 550.81                 632.33
 Force Cnst:      0.4044                 0.6548                 0.3164
 Red. Mass:       3.4536                 3.6634                 1.3433
 IR Intens:       12.019                  0.609                 59.817
 Frequency:       646.86                 741.05                 769.88
 Force Cnst:      0.3297                 0.5014                 1.9299
 Red. Mass:       1.3372                 1.5498                 5.5263
 IR Intens:       40.533                 14.160                 16.334
 Frequency:       831.39                 843.07                 888.30
 Force Cnst:      0.8972                 0.6421                 2.4212
 Red. Mass:       2.2032                 1.5334                 5.2080
 IR Intens:       24.211                  0.016                  0.832
 Frequency:       938.41                 957.29                1007.26
 Force Cnst:      0.6075                 0.7626                 0.9257
 Red. Mass:       1.1708                 1.4124                 1.5487
 IR Intens:        2.797                  1.488                 30.397
 Frequency:      1033.34                1053.07                1146.15
 Force Cnst:      2.8077                 0.8890                 4.0522
 Red. Mass:       4.4629                 1.3606                 5.2355
 IR Intens:       58.087                  1.501                  3.444
 Frequency:      1273.37                1365.55                1422.91
 Force Cnst:      1.0910                 1.2703                 1.4677
 Red. Mass:       1.1420                 1.1562                 1.2304
 IR Intens:       22.771                 31.996                  4.465
 Frequency:      1611.48                1691.68                1740.72
 Force Cnst:     11.1253                12.1003                 9.3670
 Red. Mass:       7.2713                 7.1765                 5.2467
 IR Intens:       17.720                  5.308                 74.745
 Frequency:      3001.72                3054.50                3103.68
 Force Cnst:      5.7359                 5.9494                 6.1760
 Red. Mass:       1.0805                 1.0823                 1.0882
 IR Intens:       25.641                 56.588                 48.378
 Frequency:      3266.52                3313.25                3443.33
 Force Cnst:      6.8171                 7.4226                 7.8054
 Red. Mass:       1.0844                 1.1476                 1.1173
 IR Intens:        0.580                  0.119                 46.114

 STANDARD THERMODYNAMIC QUANTITIES AT   298.15 K  AND     1.00 ATM

   This Molecule has  1 Imaginary Frequencies
   Zero point vibrational energy:       59.656 kcal/mol

   Atom    1 Element C  Has Mass   12.00000
   Atom    2 Element C  Has Mass   12.00000
   Atom    3 Element C  Has Mass   12.00000
   Atom    4 Element C  Has Mass   12.00000
   Atom    5 Element C  Has Mass   12.00000
   Atom    6 Element N  Has Mass   14.00307
   Atom    7 Element H  Has Mass    1.00783
   Atom    8 Element H  Has Mass    1.00783
   Atom    9 Element H  Has Mass    1.00783
   Atom   10 Element H  Has Mass    1.00783
   Atom   11 Element H  Has Mass    1.00783
   Atom   12 Element C  Has Mass   12.00000
   Atom   13 Element H  Has Mass    1.00783
   Molecular Mass:    92.050050 amu
   Principal axes and moments of inertia in amu*Bohr^2:
                             1           2           3
    Eigenvalues --      277.03316  1055.85436  1224.69395
          X               0.82597    -0.21391     0.52155
          Y              -0.56201    -0.24047     0.79140
          Z               0.04387     0.94679     0.31884
   Rotational Symmetry Number is   1
   The Molecule is an Asymmetric Top
   Translational Enthalpy:        0.889 kcal/mol
   Rotational Enthalpy:           0.889 kcal/mol
   Vibrational Enthalpy:         62.378 kcal/mol
   gas constant (RT):             0.592 kcal/mol
   Translational Entropy:        39.471  cal/mol.K
   Rotational Entropy:           27.373  cal/mol.K
   Vibrational Entropy:          17.319  cal/mol.K

   Total Enthalpy:               64.748 kcal/mol
   Total Entropy:                84.163  cal/mol.K

 Total job time:  515.87s(wall), 490.65s(cpu)
        *  Thank you very much for using Q-Chem.  Have a nice day.  *
