 Q-Chem 5.0, Q-Chem, Inc., Pleasanton, CA (2017)
 Q-Chem 5.0.2 for Intel X86 EM64T Linux

User input:
--------------------------------------------------------------
$molecule
0 2
C        1.6774688141    0.3774503491   -0.2344494559
C        1.1088240356   -0.8462505356   -0.3004518600
C       -0.3292781738   -1.0590548081   -0.0694932338
C       -1.1502135752    0.3399325069    0.0839446471
C       -0.3165333041    1.5350772917   -0.1445994920
N        0.9694900417    1.5798387480   -0.2042314064
H        2.7527781877    0.4947146914   -0.3403912610
H        1.7151986111   -1.7167416076   -0.5388188414
H       -0.7972305314   -1.8957382884   -0.5914925113
H       -2.1699032729    0.4131518336   -0.2992776960
H       -0.8541783408    2.4674113564   -0.3341600216
C       -0.9261070981   -0.6008677321    1.1838200781
H       -1.6803153939   -1.0889238048    1.7896010540
$end

$rem
method                b3lyp
basis                 6-31g(d)
unrestricted          true
symmetry              off
sym_ignore            true
incdft                false
incfock               0
scf_convergence       8
thresh                14
jobtype               opt
scf_guess             read
scf_algorithm         diis
max_scf_cycles        100
geom_opt_tol_gradient 600
geom_opt_tol_displacement 2400
geom_opt_tol_energy   200
geom_opt_max_cycles   100
$end

--------------------------------------------------------------

    2    -286.8549308504      2.60E-09 Convergence criterion met
 Total energy in the final basis set = -286.85493085

             Standard Nuclear Orientation (Angstroms)
    I     Atom           X                Y                Z
 ----------------------------------------------------------------
    1      C       1.6774959820     0.3774993397    -0.2341540235
    2      C       1.1088832480    -0.8465451125    -0.3001791802
    3      C      -0.3293107086    -1.0591485713    -0.0690695204
    4      C      -1.1502804891     0.3400187518     0.0843980612
    5      C      -0.3165642004     1.5351298857    -0.1445914977
    6      N       0.9695447193     1.5798346952    -0.2042478732
    7      H       2.7527871392     0.4949731713    -0.3404022641
    8      H       1.7150692702    -1.7168213668    -0.5397616549
    9      H      -0.7965207358    -1.8955920110    -0.5920706988
   10      H      -2.1698752512     0.4131535968    -0.2991085604
   11      H      -0.8540758542     2.4674153613    -0.3348641345
   12      C      -0.9261885949    -0.6014214286     1.1840910656
   13      H      -1.6809645246    -1.0884963111     1.7899602806
 ----------------------------------------------------------------

    9    -286.8549318772      8.71E-09 Convergence criterion met
 Total energy in the final basis set = -286.85493188
 Final energy is   -286.854931877194
 **  OPTIMIZATION CONVERGED  **

                    Orbital Energies (a.u.)
 --------------------------------------------------------------

 Alpha MOs
 -- Occupied --
-14.323 -10.230 -10.224 -10.221 -10.219 -10.206 -10.195  -0.934
 -0.868  -0.765  -0.667  -0.641  -0.570  -0.532  -0.491  -0.482
 -0.451  -0.425  -0.377  -0.373  -0.359  -0.300  -0.256  -0.229
 -0.219

 Beta MOs
 -- Occupied --
-14.323 -10.229 -10.224 -10.221 -10.207 -10.205 -10.194  -0.932
 -0.858  -0.763  -0.659  -0.639  -0.556  -0.527  -0.488  -0.473
 -0.447  -0.422  -0.375  -0.371  -0.351  -0.291  -0.250  -0.225

          Ground-State Mulliken Net Atomic Charges

     Atom                 Charge (a.u.)    Spin (a.u.)
  --------------------------------------------------------
      1 C                    -0.009283      -0.014796
      2 C                    -0.083908       0.041242
      3 C                    -0.175850      -0.016431
      4 C                    -0.194423      -0.016842
      5 C                     0.088594       0.019104
      6 N                    -0.391449       0.002663
      7 H                     0.136802       0.000776
      8 H                     0.139576       0.003610
      9 H                     0.155182       0.016880
     10 H                     0.155385       0.022609
     11 H                     0.142800       0.005873
     12 C                    -0.121157       0.958366
     13 H                     0.157731      -0.023054
  --------------------------------------------------------
  Sum of atomic charges =    -0.000000

                    Cartesian Multipole Moments
 -----------------------------------------------------------------
    Charge (ESU x 10^10)
                -0.0000
    Dipole Moment (Debye)
         X      -1.9679      Y      -2.0182      Z      -0.2672
       Tot       2.8314
    Quadrupole Moments (Debye-Ang)
        XX     -37.0835     XY      -2.9977     YY     -41.5050
        XZ      -0.5664     YZ       0.4100     ZZ     -42.3187

 Total job time:  38.23s(wall), 47.40s(cpu)
        *  Thank you very much for using Q-Chem.  Have a nice day.  *
