 Q-Chem 5.0, Q-Chem, Inc., Pleasanton, CA (2017)
 Q-Chem 5.0.2 for Intel X86 EM64T Linux

User input:
--------------------------------------------------------------
$molecule
0 2
C        1.1817828783    0.3161562440    0.4225127178
C        0.6604438687   -1.0911913473   -0.1223988077
C       -0.5670361437   -0.9248286154   -0.8883035656
C       -1.0852440643    0.1542583878    0.0600685179
C       -0.4655474427    1.4495078731   -0.4509748815
N        0.8063484125    1.5104603946   -0.2918409916
H        2.1704415475    0.2891044868    0.8692833393
H        1.3601290953   -1.9210459142   -0.1336123587
H       -0.8186581371   -1.1403303738   -1.9240878334
H       -2.1446712045    0.1671415777    0.3254177624
H       -1.0074874534    2.2008031098   -1.0233068143
C        0.0159127801   -0.3479181147    1.0625263378
H       -0.1064141367   -0.6621177085    2.0947165777
$end

$rem
method                b3lyp
basis                 6-31g(d)
unrestricted          true
symmetry              off
sym_ignore            true
incdft                false
incfock               0
scf_convergence       8
thresh                14
jobtype               opt
scf_guess             read
scf_algorithm         diis
max_scf_cycles        100
geom_opt_tol_gradient 600
geom_opt_tol_displacement 2400
geom_opt_tol_energy   200
geom_opt_max_cycles   100
$end

--------------------------------------------------------------

    2    -286.8383285947      2.73E-09 Convergence criterion met
 Total energy in the final basis set = -286.83832859

             Standard Nuclear Orientation (Angstroms)
    I     Atom           X                Y                Z
 ----------------------------------------------------------------
    1      C       1.1817512254     0.3159809449     0.4224808506
    2      C       0.6606714379    -1.0909876641    -0.1224657563
    3      C      -0.5671541446    -0.9251510937    -0.8882114795
    4      C      -1.0851723585     0.1541927577     0.0598865252
    5      C      -0.4654527989     1.4493569516    -0.4513033860
    6      N       0.8066400455     1.5099102152    -0.2928004378
    7      H       2.1701117827     0.2891431148     0.8698527133
    8      H       1.3602632901    -1.9209099618    -0.1336211524
    9      H      -0.8186150618    -1.1403536173    -1.9241128138
   10      H      -2.1444926129     0.1671200795     0.3255110409
   11      H      -1.0077873564     2.2013622581    -1.0222883571
   12      C       0.0158181216    -0.3478210743     1.0624228098
   13      H      -0.1065815702    -0.6618429107     2.0946494432
 ----------------------------------------------------------------

    9    -286.8383290296      5.94E-09 Convergence criterion met
 Total energy in the final basis set = -286.83832903
 Final energy is   -286.838329029580
 **  OPTIMIZATION CONVERGED  **

                    Orbital Energies (a.u.)
 --------------------------------------------------------------

 Alpha MOs
 -- Occupied --
-14.320 -10.224 -10.220 -10.210 -10.209 -10.208 -10.206  -0.968
 -0.856  -0.749  -0.664  -0.606  -0.571  -0.535  -0.516  -0.467
 -0.439  -0.405  -0.400  -0.356  -0.336  -0.298  -0.273  -0.256
 -0.182

 Beta MOs
 -- Occupied --
-14.319 -10.222 -10.219 -10.211 -10.209 -10.207 -10.193  -0.964
 -0.850  -0.741  -0.652  -0.601  -0.567  -0.528  -0.511  -0.461
 -0.434  -0.403  -0.394  -0.348  -0.332  -0.291  -0.262  -0.251

          Ground-State Mulliken Net Atomic Charges

     Atom                 Charge (a.u.)    Spin (a.u.)
  --------------------------------------------------------
      1 C                    -0.019098       0.096933
      2 C                    -0.163250      -0.095879
      3 C                    -0.066380       0.888394
      4 C                    -0.257947      -0.065699
      5 C                     0.088582       0.047039
      6 N                    -0.342237       0.039245
      7 H                     0.151451       0.002842
      8 H                     0.147195       0.005291
      9 H                     0.136241      -0.019300
     10 H                     0.142812       0.022680
     11 H                     0.143042       0.001382
     12 C                    -0.108474       0.077853
     13 H                     0.148064      -0.000782
  --------------------------------------------------------
  Sum of atomic charges =     0.000000

                    Cartesian Multipole Moments
 -----------------------------------------------------------------
    Charge (ESU x 10^10)
                 0.0000
    Dipole Moment (Debye)
         X      -1.1924      Y      -1.5149      Z       0.6943
       Tot       2.0491
    Quadrupole Moments (Debye-Ang)
        XX     -38.9041     XY      -4.7739     YY     -43.5808
        XZ       2.2651     YZ       0.0662     ZZ     -38.8338

 Total job time:  33.57s(wall), 48.18s(cpu)
        *  Thank you very much for using Q-Chem.  Have a nice day.  *
