 Q-Chem 5.0, Q-Chem, Inc., Pleasanton, CA (2017)
 Q-Chem 5.0.2 for Intel X86 EM64T Linux

User input:
--------------------------------------------------------------
$molecule
0 2
C        1.2327470944    0.1822936509   -1.1952922431
C        0.4762600568   -1.1590477055   -1.0849940370
C       -0.7895922046   -0.5982468002   -2.2575363973
C       -1.1250215908    0.0047550621   -0.4459442803
C       -0.6586032874    0.9035437792   -1.9145655914
N        0.8912296832    1.3390975700   -1.5478749731
H        2.1682170976    0.1990744937   -0.5831309846
H        1.2350823709   -1.9464056127   -1.1810565186
H       -1.1369605806   -1.5920103737   -2.1268015344
H       -1.9980921963    0.3070872651    0.1239860989
H       -1.3597692314    1.5993594466   -2.4385751045
C       -0.1267920611   -0.7790707121    0.2355090379
H        0.2102924680   -0.5718049088    1.2860010558
$end

$rem
method                b3lyp
basis                 6-31g(d)
unrestricted          true
symmetry              off
sym_ignore            true
incdft                false
incfock               0
scf_convergence       8
thresh                14
jobtype               opt
scf_guess             read
scf_algorithm         diis
max_scf_cycles        100
geom_opt_tol_gradient 600
geom_opt_tol_displacement 2400
geom_opt_tol_energy   200
geom_opt_max_cycles   100
$end

--------------------------------------------------------------

    2    -286.6499640914      3.04E-09 Convergence criterion met
 Total energy in the final basis set = -286.64996409
   16    -286.6905921892      4.71E-09 Convergence criterion met
 Total energy in the final basis set = -286.69059219
   15    -286.7237097020      8.81E-09 Convergence criterion met
 Total energy in the final basis set = -286.72370970
   15    -286.7493196980      7.10E-09 Convergence criterion met
 Total energy in the final basis set = -286.74931970
   15    -286.7678764937      4.85E-09 Convergence criterion met
 Total energy in the final basis set = -286.76787649
   15    -286.7811694891      3.17E-09 Convergence criterion met
 Total energy in the final basis set = -286.78116949
   14    -286.7914497900      7.62E-09 Convergence criterion met
 Total energy in the final basis set = -286.79144979
   14    -286.7999453414      5.30E-09 Convergence criterion met
   14    -286.8382057671      6.37E-09 Convergence criterion met
 Total energy in the final basis set = -286.83820577
   12    -286.8382649297      8.07E-09 Convergence criterion met
 Total energy in the final basis set = -286.83826493
   13    -286.8383397253      5.63E-09 Convergence criterion met
 Total energy in the final basis set = -286.83833973
   12    -286.8383641264      3.38E-09 Convergence criterion met
 Total energy in the final basis set = -286.83836413
   11    -286.8383768561      6.93E-09 Convergence criterion met
 Total energy in the final basis set = -286.83837686
   11    -286.8383800304      8.53E-09 Convergence criterion met
 Total energy in the final basis set = -286.83838003

             Standard Nuclear Orientation (Angstroms)
    I     Atom           X                Y                Z
 ----------------------------------------------------------------
    1      C       1.4478373689     0.2225472694    -1.2399569092
    2      C       0.6064770101    -1.0221618714    -0.9842136825
    3      C      -0.7093717353    -0.6794864141    -1.7715399559
    4      C      -1.2338885947    -0.0269615968    -0.4782862480
    5      C      -0.6068130893     0.8006660775    -1.6911441289
    6      N       0.7586008230     1.2492615823    -1.5831831134
    7      H       2.5128917822     0.2940183922    -1.0249296655
    8      H       1.0954474482    -1.9946231071    -1.0741744293
    9      H      -1.2335445326    -1.2869850107    -2.5032140392
   10      H      -2.2483307816     0.2101684126    -0.1732265226
   11      H      -1.3086149724     1.4504319345    -2.2039208682
   12      C      -0.1892824447    -0.7016573297     0.2799590753
   13      H       0.1275893369    -0.6265931842     1.3175550157
 ----------------------------------------------------------------

    9    -286.8383805159      4.54E-09 Convergence criterion met
 Total energy in the final basis set = -286.83838052
 Final energy is   -286.838380515943
 **  OPTIMIZATION CONVERGED  **

                    Orbital Energies (a.u.)
 --------------------------------------------------------------

 Alpha MOs
 -- Occupied --
-14.320 -10.224 -10.220 -10.210 -10.209 -10.208 -10.206  -0.968
 -0.856  -0.749  -0.664  -0.606  -0.571  -0.535  -0.517  -0.467
 -0.439  -0.405  -0.400  -0.356  -0.336  -0.298  -0.273  -0.256
 -0.182

 Beta MOs
 -- Occupied --
-14.319 -10.222 -10.219 -10.211 -10.209 -10.207 -10.193  -0.964
 -0.850  -0.741  -0.652  -0.601  -0.567  -0.528  -0.511  -0.461
 -0.434  -0.402  -0.393  -0.348  -0.332  -0.291  -0.262  -0.251

          Ground-State Mulliken Net Atomic Charges

     Atom                 Charge (a.u.)    Spin (a.u.)
  --------------------------------------------------------
      1 C                     0.088794       0.047339
      2 C                    -0.258709      -0.065724
      3 C                    -0.107944       0.077836
      4 C                    -0.163918      -0.095981
      5 C                    -0.018868       0.097246
      6 N                    -0.342250       0.038884
      7 H                     0.143023       0.001360
      8 H                     0.142888       0.022671
      9 H                     0.148102      -0.000769
     10 H                     0.147268       0.005288
     11 H                     0.151400       0.002845
     12 C                    -0.066033       0.888268
     13 H                     0.136247      -0.019262
  --------------------------------------------------------
  Sum of atomic charges =    -0.000000

                    Cartesian Multipole Moments
 -----------------------------------------------------------------
    Charge (ESU x 10^10)
                 0.0000
    Dipole Moment (Debye)
         X      -0.7655      Y      -1.8804      Z       0.2788
       Tot       2.0493
    Quadrupole Moments (Debye-Ang)
        XX     -36.8318     XY      -3.4644     YY     -43.8321
        XZ       2.9134     YZ       3.4315     ZZ     -40.4931

 Total job time:  785.89s(wall), 1181.24s(cpu)
        *  Thank you very much for using Q-Chem.  Have a nice day.  *
