 Q-Chem 5.0, Q-Chem, Inc., Pleasanton, CA (2017)
 Q-Chem 5.0.2 for Intel X86 EM64T Linux

User input:
--------------------------------------------------------------
$molecule
0 2
C        1.6800878628    0.2643042736   -2.0946398523
C        1.0324371669   -0.9531014999   -1.8642108349
C       -0.5297382883   -1.0647090544   -2.2017283180
C       -1.3945171571    0.4359844674   -0.5215511279
C       -0.7660576940    0.7848693288   -1.9290617723
N        0.9161628896    1.3788877321   -2.4883381240
H        2.5936663408    0.6669191536   -1.6694092856
H        1.6052559267   -1.7882226553   -1.4781436429
H       -0.9332067040   -2.0126483832   -2.7885105774
H       -2.4365546627    0.6693468659   -0.2944900482
H       -1.1829147229    1.4147366948   -2.7209956619
C       -0.9608184321   -0.8902064543   -0.8952476927
H       -1.4977698951   -1.7805200273   -0.5238155112
$end

$rem
method                b3lyp
basis                 6-31g(d)
unrestricted          true
symmetry              off
sym_ignore            true
incdft                false
incfock               0
scf_convergence       8
thresh                14
jobtype               opt
scf_guess             read
scf_algorithm         diis
max_scf_cycles        100
geom_opt_tol_gradient 600
geom_opt_tol_displacement 2400
geom_opt_tol_energy   200
geom_opt_max_cycles   100
$end

--------------------------------------------------------------

    2    -286.6486751627      4.72E-09 Convergence criterion met
 Total energy in the final basis set = -286.64867516
   18    -286.6920728700      7.35E-09 Convergence criterion met
 Total energy in the final basis set = -286.69207287
   18    -286.7287688643      6.66E-09 Convergence criterion met
 Total energy in the final basis set = -286.72876886
   18    -286.7588227518      4.83E-09 Convergence criterion met
 Total energy in the final basis set = -286.75882275
   18    -286.7834260872      3.14E-09 Convergence criterion met
 Total energy in the final basis set = -286.78342609
   17    -286.8033583074      9.03E-09 Convergence criterion met
 Total energy in the final basis set = -286.80335831
   17    -286.8194679306      3.28E-09 Convergence criterion met
 Total energy in the final basis set = -286.81946793
   16    -286.8326216074      9.22E-09 Convergence criterion met
   11    -286.8754283251      5.84E-09 Convergence criterion met
 Total energy in the final basis set = -286.87542833
   11    -286.8754378847      6.26E-09 Convergence criterion met
 Total energy in the final basis set = -286.87543788
   11    -286.8754436250      3.42E-09 Convergence criterion met
 Total energy in the final basis set = -286.87544363
   11    -286.8754486536      3.96E-09 Convergence criterion met
 Total energy in the final basis set = -286.87544865
   10    -286.8754525840      4.56E-09 Convergence criterion met
 Total energy in the final basis set = -286.87545258
   10    -286.8754551774      5.47E-09 Convergence criterion met
 Total energy in the final basis set = -286.87545518

             Standard Nuclear Orientation (Angstroms)
    I     Atom           X                Y                Z
 ----------------------------------------------------------------
    1      C       1.5248767232     0.3546757901    -1.8560712264
    2      C       1.0864519874    -0.9768514667    -1.9265983701
    3      C      -0.3958158269    -0.9714399298    -2.1087861865
    4      C      -1.4756942609     0.3512550421    -0.8488964215
    5      C      -0.6800021434     0.5833225248    -2.1349365401
    6      N       0.5858756838     1.2887429274    -1.9671496265
    7      H       2.5597883358     0.6546748797    -1.6966439348
    8      H       1.7150545093    -1.8548319728    -1.8263796962
    9      H      -0.7618980316    -1.5930244011    -2.9364657992
   10      H      -1.9907764711     1.0425350080    -0.1880550996
   11      H      -1.2435120851     0.9870049505    -2.9852621082
   12      C      -1.2543109469    -0.9677716990    -0.8330448234
   13      H      -1.5440048430    -1.7726512115    -0.1618526168
 ----------------------------------------------------------------

   10    -286.8754566158      6.42E-09 Convergence criterion met
 Total energy in the final basis set = -286.87545662
 Final energy is   -286.875456615843
 **  OPTIMIZATION CONVERGED  **

                    Orbital Energies (a.u.)
 --------------------------------------------------------------

 Alpha MOs
 -- Occupied --
-14.328 -10.217 -10.216 -10.207 -10.203 -10.200 -10.195  -0.944
 -0.837  -0.752  -0.665  -0.618  -0.554  -0.523  -0.515  -0.481
 -0.428  -0.402  -0.386  -0.355  -0.341  -0.322  -0.270  -0.253
 -0.203

 Beta MOs
 -- Occupied --
-14.318 -10.219 -10.218 -10.203 -10.199 -10.198 -10.195  -0.932
 -0.831  -0.734  -0.665  -0.610  -0.549  -0.520  -0.511  -0.475
 -0.420  -0.396  -0.381  -0.343  -0.334  -0.301  -0.264  -0.246

          Ground-State Mulliken Net Atomic Charges

     Atom                 Charge (a.u.)    Spin (a.u.)
  --------------------------------------------------------
      1 C                     0.048304      -0.230884
      2 C                    -0.114770       0.693509
      3 C                    -0.193539      -0.053948
      4 C                    -0.076159       0.032427
      5 C                    -0.062043      -0.027821
      6 N                    -0.351405       0.517310
      7 H                     0.140574       0.007439
      8 H                     0.143368      -0.032154
      9 H                     0.148055       0.025381
     10 H                     0.137426       0.003605
     11 H                     0.151735       0.025114
     12 C                    -0.104901       0.033190
     13 H                     0.133356       0.006834
  --------------------------------------------------------
  Sum of atomic charges =     0.000000

                    Cartesian Multipole Moments
 -----------------------------------------------------------------
    Charge (ESU x 10^10)
                -0.0000
    Dipole Moment (Debye)
         X      -0.3282      Y      -2.1267      Z       0.1109
       Tot       2.1547
    Quadrupole Moments (Debye-Ang)
        XX     -37.4267     XY      -2.1374     YY     -41.9779
        XZ       0.2800     YZ       3.9556     ZZ     -40.3429

 Total job time:  800.15s(wall), 1087.72s(cpu)
        *  Thank you very much for using Q-Chem.  Have a nice day.  *
